<LesHouchesEvents version="3.0">
<header>
<!--
main62 test LHE file
-->
<slha>
###################################
## INFORMATION FOR MASS
###################################
Block mass 
    5 4.700000e+00 # MB 
    6 1.720000e+02 # MT 
   15 1.777000e+00 # MTA 
   23 9.118760e+01 # MZ 
   25 1.250000e+02 # MH 
  8000001 1.500000e+03 # MT23  
  8000002 6.000000e+02 # MB13 
  8000003 6.000000e+02 # MX53 
  8000004 6.000000e+02 # MX23 
  9900113 2.500000e+03 # mrho0 
  9900213 1.800000e+03 # mrhop 
###################################
## INFORMATION FOR DECAY
###################################
DECAY   6 1.508336e+00 # WT 
DECAY  23 2.495200e+00 # WZ 
DECAY  24 2.085000e+00 # WW 
DECAY  25 5.753088e-03 # WH 
DECAY 8000001 1.000000e-03 # WT23
DECAY 8000002 1.000000e-03 # WB13 
DECAY 8000003 1.000000e-03 # WX53 
DECAY 8000004 1.000000e-03 # WX23 
DECAY 9900113 2.500000e+01 # wrho0
DECAY 9900213 1.000000e-03 # wrhop 
#===========================================================
# QUANTUM NUMBERS OF NEW STATE(S) (NON SM PDG CODE)
#===========================================================
Block QNUMBERS 9900213  # rho+ 
        1 3  # 3 times electric charge
        2 3  # number of spin states (2S+1)
        3 1  # colour rep (1: singlet, 3: triplet, 8: octet)
        4 1  # Particle/Antiparticle distinction (0=own anti)
Block QNUMBERS 9900113  # rho0 
        1 0  # 3 times electric charge
        2 3  # number of spin states (2S+1)
        3 1  # colour rep (1: singlet, 3: triplet, 8: octet)
        4 0  # Particle/Antiparticle distinction (0=own anti)
Block QNUMBERS 8000001  # t23 
        1 2  # 3 times electric charge
        2 2  # number of spin states (2S+1)
        3 3  # colour rep (1: singlet, 3: triplet, 8: octet)
        4 1  # Particle/Antiparticle distinction (0=own anti)
Block QNUMBERS 8000002  # b13 
        1 -1  # 3 times electric charge
        2 2  # number of spin states (2S+1)
        3 3  # colour rep (1: singlet, 3: triplet, 8: octet)
        4 1  # Particle/Antiparticle distinction (0=own anti)
Block QNUMBERS 8000003  # x53 
        1 5  # 3 times electric charge
        2 2  # number of spin states (2S+1)
        3 3  # colour rep (1: singlet, 3: triplet, 8: octet)
        4 1  # Particle/Antiparticle distinction (0=own anti)
Block QNUMBERS 8000004  # x23 
        1 2  # 3 times electric charge
        2 2  # number of spin states (2S+1)
        3 3  # colour rep (1: singlet, 3: triplet, 8: octet)
        4 1  # Particle/Antiparticle distinction (0=own anti)
</slha>
## END BANNER##
<MGGenerationInfo>
#  Number of Events        :        10000
#   truncated to 100 for this example
#  Integrated weight (pb)  :  0.27410E+00
#  Truncated wgt (pb)      :  0.00000E+00
#  Unit wgt                :  0.27410E-04
</MGGenerationInfo>
</header>
<init>
     2212     2212  0.65000000000E+04  0.65000000000E+04 0 0  263400  263400  3   1
  0.27410080022E+00  0.41791122007E-03  0.27410000000E-04   0
<generator name='MadGraph5_aMC@NLO' version='#5.2.2.3'>please cite 1405.0301 </generator>
</init>
<event>
11   0  0.2741000E-04  0.2423150E+04  0.7818609E-02  0.8084527E-01
        2   -1    0    0  501    0  0.00000000000E+00  0.00000000000E+00  0.94207218109E+03  0.94207218109E+03  0.00000000000E+00 0. -1.
       -2   -1    0    0    0  501  0.00000000000E+00  0.00000000000E+00 -0.15581751639E+04  0.15581751639E+04  0.00000000000E+00 0.  1.
  9900113    2    1    2    0    0 -0.56843418861E-13 -0.11368683772E-12 -0.61610298281E+03  0.25002473450E+04  0.24231495828E+04 0.  0.
        6    2    3    3  502    0 -0.25135999691E+03 -0.31646918783E+03 -0.82321011532E+03  0.93301122621E+03  0.17175697767E+03 0.  0.
 -8000001    2    3    3    0  502  0.25135999691E+03  0.31646918783E+03  0.20710713250E+03  0.15672361188E+04  0.15000003643E+04 0.  0.
       -6    2    5    5    0  502  0.64984257753E+03  0.62837822716E+03  0.41077328654E+03  0.10076107815E+04  0.17143576652E+03 0.  0.
       25    1    5    5    0    0 -0.39848258063E+03 -0.31190903933E+03 -0.20366615403E+03  0.55962533732E+03  0.12500000000E+03 0.  0.
      -24    1    6    6    0    0  0.15862268801E+03  0.19467368635E+03  0.14209067150E+03  0.29936714668E+03  0.79824358925E+02 0. -1.
       -5    1    6    6    0  502  0.49121988952E+03  0.43370454081E+03  0.26868261503E+03  0.70824363478E+03  0.46999998093E+01 0.  1.
       24    1    4    4    0    0 -0.10323066400E+03 -0.23629069175E+03 -0.48093305798E+03  0.55150557162E+03  0.79824358925E+02 0.  1.
        5    1    4    4  502    0 -0.14812933291E+03 -0.80178496077E+02 -0.34227705734E+03  0.38150565458E+03  0.46999998093E+01 0. -1.
</event>
<event>
11   0  0.2741000E-04  0.2515530E+04  0.7818609E-02  0.8052236E-01
        1   -1    0    0  501    0  0.00000000000E+00  0.00000000000E+00  0.13571650269E+04  0.13571650269E+04  0.00000000000E+00 0. -1.
       -1   -1    0    0    0  501  0.00000000000E+00  0.00000000000E+00 -0.11656451407E+04  0.11656451407E+04  0.00000000000E+00 0.  1.
  9900113    2    1    2    0    0 -0.28421709430E-13  0.00000000000E+00  0.19151988624E+03  0.25228101676E+04  0.25155300187E+04 0.  0.
        6    2    3    3  502    0 -0.20388777347E+03 -0.69988092122E+03 -0.26369186020E+03  0.79404722956E+03  0.17197115333E+03 0.  0.
 -8000001    2    3    3    0  502  0.20388777347E+03  0.69988092122E+03  0.45521174644E+03  0.17287629380E+04  0.15000000113E+04 0.  0.
       -6    2    5    5    0  502 -0.14049203843E+03  0.59408573489E+03  0.92635015005E+03  0.11226387992E+04  0.17180628567E+03 0.  0.
       25    1    5    5    0    0  0.34437981190E+03  0.10579518633E+03 -0.47113840361E+03  0.60612413881E+03  0.12500000000E+03 0.  0.
      -24    1    6    6    0    0 -0.76064352120E+01  0.28226645447E+03  0.38825361448E+03  0.48666724423E+03  0.79824358925E+02 0. -1.
       -5    1    6    6    0  502 -0.13288560322E+03  0.31181928042E+03  0.53809653557E+03  0.63597155500E+03  0.46999998093E+01 0.  1.
       24    1    4    4    0    0 -0.53176961011E+02 -0.26610321199E+03 -0.15328388112E+03  0.32172439308E+03  0.79824358925E+02 0.  1.
        5    1    4    4  502    0 -0.15071081246E+03 -0.43377770923E+03 -0.11040797908E+03  0.47232283648E+03  0.46999998093E+01 0. -1.
</event>
<event>
11   0  0.2741000E-04  0.2499719E+04  0.7818609E-02  0.8057660E-01
       -2   -1    0    0    0  501  0.00000000000E+00  0.00000000000E+00  0.18414484620E+04  0.18414484620E+04  0.00000000000E+00 0.  1.
        2   -1    0    0  501    0  0.00000000000E+00  0.00000000000E+00 -0.84832607223E+03  0.84832607223E+03  0.00000000000E+00 0. -1.
  9900113    2    1    2    0    0  0.28421709430E-13  0.00000000000E+00  0.99312238978E+03  0.26897745342E+04  0.24997189770E+04 0.  0.
       -6    2    3    3    0  502  0.81385102487E+02 -0.27296835220E+03  0.11100125229E+04  0.11585010129E+04  0.16988684419E+03 0.  0.
  8000001    2    3    3  502    0 -0.81385102487E+02  0.27296835220E+03 -0.11689013310E+03  0.15312735213E+04  0.15000000125E+04 0.  0.
        6    2    5    5  502    0  0.34039205922E+03  0.24501827490E+03  0.56222485892E+03  0.72164437575E+03  0.16962636598E+03 0.  0.
       25    1    5    5    0    0 -0.42177716171E+03  0.27950077294E+02 -0.67911499202E+03  0.80962914556E+03  0.12500000000E+03 0.  0.
       24    1    6    6    0    0  0.18930015352E+03  0.95133874212E+02  0.20300274733E+03  0.30408394539E+03  0.79824358925E+02 0.  1.
        5    1    6    6  502    0  0.15109190570E+03  0.14988440069E+03  0.35922211159E+03  0.41756043035E+03  0.46999998093E+01 0. -1.
      -24    1    4    4    0    0  0.35794243669E+01 -0.21756737814E+03  0.86421804620E+03  0.89475870265E+03  0.79824358925E+02 0.  1.
       -5    1    4    4    0  502  0.77805678120E+02 -0.55400974058E+02  0.24579447667E+03  0.26374231029E+03  0.46999998093E+01 0.  1.
</event>
<event>
11   0  0.2741000E-04  0.2531836E+04  0.7818609E-02  0.8046685E-01
        1   -1    0    0  501    0  0.00000000000E+00  0.00000000000E+00  0.14592402634E+04  0.14592402634E+04  0.00000000000E+00 0. -1.
       -1   -1    0    0    0  501  0.00000000000E+00  0.00000000000E+00 -0.10982071811E+04  0.10982071811E+04  0.00000000000E+00 0.  1.
  9900113    2    1    2    0    0  0.92370555649E-13  0.22737367544E-12  0.36103308229E+03  0.25574474445E+04  0.25318358053E+04 0.  0.
        6    2    3    3  502    0 -0.52787156303E+02 -0.55501997617E+03 -0.47419419129E+03  0.75233323754E+03  0.17410201444E+03 0.  0.
 -8000001    2    3    3    0  502  0.52787156303E+02  0.55501997617E+03  0.83522727359E+03  0.18051142069E+04  0.14999996812E+04 0.  0.
       -6    2    5    5    0  502 -0.49621110748E+03 -0.26692815345E+03  0.43161694952E+03  0.73016113116E+03  0.17136506078E+03 0.  0.
       25    1    5    5    0    0  0.54899826378E+03  0.82194812962E+03  0.40361032407E+03  0.10749530758E+04  0.12500000000E+03 0.  0.
      -24    1    6    6    0    0 -0.25047085530E+03 -0.73497717370E+02  0.16339491511E+03  0.31813108992E+03  0.79824358925E+02 0. -1.
       -5    1    6    6    0  502 -0.24574025218E+03 -0.19343043608E+03  0.26822203441E+03  0.41203004124E+03  0.46999998093E+01 0.  1.
       24    1    4    4    0    0 -0.73604193028E+02 -0.42765755765E+03 -0.42930391951E+03  0.61561542170E+03  0.79824358925E+02 0.  0.
        5    1    4    4  502    0  0.20817036725E+02 -0.12736241853E+03 -0.44890271781E+02  0.13671781585E+03  0.46999998093E+01 0. -1.
</event>
<event>
11   0  0.2741000E-04  0.2499607E+04  0.7818609E-02  0.8057698E-01
       -2   -1    0    0    0  501  0.00000000000E+00  0.00000000000E+00  0.71892458500E+03  0.71892458500E+03  0.00000000000E+00 0.  1.
        2   -1    0    0  501    0  0.00000000000E+00  0.00000000000E+00 -0.21727026920E+04  0.21727026920E+04  0.00000000000E+00 0. -1.
  9900113    2    1    2    0    0  0.00000000000E+00 -0.28421709430E-13 -0.14537781070E+04  0.28916272770E+04  0.24996074741E+04 0.  0.
       -6    2    3    3    0  502  0.80273670617E+02 -0.10659024489E+03 -0.13659155490E+04  0.13831434345E+04  0.17191605782E+03 0.  0.
  8000001    2    3    3  502    0 -0.80273670617E+02  0.10659024489E+03 -0.87862557941E+02  0.15084838424E+04  0.14999994438E+04 0.  0.
        6    2    5    5  502    0  0.67860377148E+02  0.69060392784E+00  0.68251248221E+03  0.70707188061E+03  0.17181923131E+03 0.  0.
       25    1    5    5    0    0 -0.14813404777E+03  0.10589964096E+03 -0.77037504015E+03  0.80141196182E+03  0.12500000000E+03 0.  0.
       24    1    6    6    0    0  0.82105908581E+02  0.43275762691E+02  0.33553519523E+03  0.35716938191E+03  0.79824358925E+02 0.  0.
        5    1    6    6  502    0 -0.14245531433E+02 -0.42585158763E+02  0.34697728698E+03  0.34990249869E+03  0.46999998093E+01 0. -1.
      -24    1    4    4    0    0  0.53750286857E+02 -0.14296800689E+03 -0.10740628179E+04  0.10878013649E+04  0.79824358925E+02 0.  0.
       -5    1    4    4    0  502  0.26523383760E+02  0.36377762005E+02 -0.29185273109E+03  0.29534206964E+03  0.46999998093E+01 0.  1.
</event>
<event>
11   0  0.2741000E-04  0.2409797E+04  0.7818609E-02  0.8089317E-01
        2   -1    0    0  501    0  0.00000000000E+00  0.00000000000E+00  0.31584217575E+04  0.31584217575E+04  0.00000000000E+00 0. -1.
       -2   -1    0    0    0  501  0.00000000000E+00  0.00000000000E+00 -0.45965381685E+03  0.45965381685E+03  0.00000000000E+00 0.  1.
  9900113    2    1    2    0    0  0.56843418861E-13  0.56843418861E-13  0.26987679407E+04  0.36180755744E+04  0.24097971832E+04 0.  0.
        6    2    3    3  502    0 -0.40217491695E+03 -0.13218260624E+03 -0.48798720421E+02  0.45922456966E+03  0.17114024965E+03 0.  0.
 -8000001    2    3    3    0  502  0.40217491695E+03  0.13218260624E+03  0.27475666611E+04  0.31588510047E+04  0.15000000692E+04 0.  0.
       -6    2    5    5    0  502  0.22257660318E+03  0.65321579964E+03  0.57748857527E+03  0.91639809740E+03  0.17338164021E+03 0.  0.
       25    1    5    5    0    0  0.17959831377E+03 -0.52103319340E+03  0.21700780859E+04  0.22424529073E+04  0.12500000000E+03 0.  0.
      -24    1    6    6    0    0  0.13690424107E+03  0.51324354093E+03  0.50379805722E+03  0.73644152129E+03  0.79824358925E+02 0.  0.
       -5    1    6    6    0  502  0.85672362110E+02  0.13997225871E+03  0.73690518041E+02  0.17995657611E+03  0.46999998093E+01 0.  1.
       24    1    4    4    0    0 -0.29107020474E+03 -0.28827905712E+02 -0.14250810811E+02  0.30352582448E+03  0.79824358925E+02 0.  0.
        5    1    4    4  502    0 -0.11110471221E+03 -0.10335470053E+03 -0.34547909610E+02  0.15569874519E+03  0.46999998093E+01 0. -1.
</event>
<event>
11   0  0.2741000E-04  0.2483033E+04  0.7818609E-02  0.8063429E-01
       -1   -1    0    0    0  501  0.00000000000E+00  0.00000000000E+00  0.12931589050E+04  0.12931589050E+04  0.00000000000E+00 0.  1.
        1   -1    0    0  501    0  0.00000000000E+00  0.00000000000E+00 -0.11919365430E+04  0.11919365430E+04  0.00000000000E+00 0. -1.
  9900113    2    1    2    0    0  0.85265128291E-13  0.31974423109E-13  0.10122236207E+03  0.24850954480E+04  0.24830331087E+04 0.  0.
        6    2    3    3  502    0  0.69744484754E+02  0.14659211140E+01 -0.73941700530E+03  0.76418317797E+03  0.17992214897E+03 0.  0.
 -8000001    2    3    3    0  502 -0.69744484754E+02 -0.14659211140E+01  0.84063936737E+03  0.17209122700E+04  0.14999993510E+04 0.  0.
       -6    2    5    5    0  502 -0.65262905915E+03 -0.14789226247E+03  0.13694755110E+02  0.69102999895E+03  0.17186652664E+03 0.  0.
       25    1    5    5    0    0  0.58288457440E+03  0.14642634135E+03  0.82694461226E+03  0.10298822711E+04  0.12500000000E+03 0.  0.
      -24    1    6    6    0    0 -0.27777361478E+03 -0.11401270282E+03  0.42178588692E+02  0.31354112824E+03  0.79824358925E+02 0.  0.
       -5    1    6    6    0  502 -0.37485544437E+03 -0.33879559643E+02 -0.28483833582E+02  0.37748887071E+03  0.46999998093E+01 0.  1.
       24    1    4    4    0    0  0.54172092312E+02 -0.18713180648E+02 -0.73003405116E+03  0.73661824770E+03  0.79824358925E+02 0. -1.
        5    1    4    4  502    0  0.15572392442E+02  0.20179101762E+02 -0.93829541410E+01  0.27564930272E+02  0.46999998093E+01 0. -1.
</event>
<event>
11   0  0.2741000E-04  0.2483740E+04  0.7818609E-02  0.8063184E-01
        2   -1    0    0  501    0  0.00000000000E+00  0.00000000000E+00  0.90176527821E+03  0.90176527821E+03  0.00000000000E+00 0. -1.
       -2   -1    0    0    0  501  0.00000000000E+00  0.00000000000E+00 -0.17102467002E+04  0.17102467002E+04  0.00000000000E+00 0.  1.
  9900113    2    1    2    0    0 -0.11368683772E-12  0.00000000000E+00 -0.80848142203E+03  0.26120119784E+04  0.24837399956E+04 0.  0.
       -6    2    3    3    0  502  0.75696129338E+03 -0.66625057952E+02 -0.93377262522E+02  0.78477270676E+03  0.17239370665E+03 0.  0.
  8000001    2    3    3  502    0 -0.75696129338E+03  0.66625057952E+02 -0.71510415951E+03  0.18272392717E+04  0.15000000330E+04 0.  0.
        6    2    5    5  502    0 -0.34267373840E+03 -0.17548115661E+03 -0.11137800189E+04  0.11909869332E+04  0.17240944629E+03 0.  0.
       25    1    5    5    0    0 -0.41428755498E+03  0.24210621456E+03  0.39867585942E+03  0.63625233849E+03  0.12500000000E+03 0.  0.
       24    1    6    6    0    0 -0.13202612136E+03 -0.12328999080E+03 -0.64148323288E+03  0.67119593629E+03  0.79824358925E+02 0.  0.
        5    1    6    6  502    0 -0.21064761704E+03 -0.52191165808E+02 -0.47229678605E+03  0.51979099691E+03  0.46999998093E+01 0. -1.
      -24    1    4    4    0    0  0.51882874277E+03 -0.22458574863E+02 -0.71145017765E+00  0.52541420456E+03  0.79824358925E+02 0.  1.
       -5    1    4    4    0  502  0.23813255061E+03 -0.44166483089E+02 -0.92665812345E+02  0.25935850220E+03  0.46999998093E+01 0.  1.
</event>
<event>
11   0  0.2741000E-04  0.2502790E+04  0.7818609E-02  0.8056603E-01
       -2   -1    0    0    0  501  0.00000000000E+00  0.00000000000E+00  0.14357779450E+04  0.14357779450E+04  0.00000000000E+00 0.  1.
        2   -1    0    0  501    0  0.00000000000E+00  0.00000000000E+00 -0.10906908858E+04  0.10906908858E+04  0.00000000000E+00 0. -1.
  9900113    2    1    2    0    0 -0.71054273576E-14 -0.56843418861E-13  0.34508705922E+03  0.25264688307E+04  0.25027903776E+04 0.  0.
        6    2    3    3  502    0 -0.36656632031E+02  0.46445763668E+03  0.75467876363E+03  0.90324895117E+03  0.17103808516E+03 0.  0.
 -8000001    2    3    3    0  502  0.36656632031E+02 -0.46445763668E+03 -0.40959170441E+03  0.16232198796E+04  0.15000042694E+04 0.  0.
       -6    2    5    5    0  502  0.26914988983E+03 -0.89463011005E+03 -0.55240942462E+03  0.10986978371E+04  0.17081003465E+03 0.  0.
       25    1    5    5    0    0 -0.23249325780E+03  0.43017247338E+03  0.14281772020E+03  0.52452204241E+03  0.12500000000E+03 0.  0.
      -24    1    6    6    0    0  0.15146952559E+03 -0.57464552846E+03 -0.42388013322E+03  0.73430701766E+03  0.79824358925E+02 0.  0.
       -5    1    6    6    0  502  0.11768036424E+03 -0.31998458159E+03 -0.12852929139E+03  0.36439081949E+03  0.46999998093E+01 0.  1.
       24    1    4    4    0    0 -0.32545847809E+02  0.39962575873E+03  0.72355708935E+03  0.83106363720E+03  0.79824358925E+02 0.  0.
        5    1    4    4  502    0 -0.41107842213E+01  0.64831877943E+02  0.31121674283E+02  0.72185313969E+02  0.46999998093E+01 0. -1.
</event>
<event>
11   0  0.2741000E-04  0.2518092E+04  0.7818609E-02  0.8051361E-01
       -2   -1    0    0    0  501  0.00000000000E+00  0.00000000000E+00  0.47187183212E+03  0.47187183212E+03  0.00000000000E+00 0.  1.
        2   -1    0    0  501    0  0.00000000000E+00  0.00000000000E+00 -0.33593802726E+04  0.33593802726E+04  0.00000000000E+00 0. -1.
  9900113    2    1    2    0    0 -0.28421709430E-13  0.00000000000E+00 -0.28875084405E+04  0.38312521048E+04  0.25180920746E+04 0.  0.
        6    2    3    3  502    0 -0.45204107430E+02  0.47960073678E+03 -0.19095225770E+04  0.19769280750E+04  0.17293890118E+03 0.  0.
 -8000001    2    3    3    0  502  0.45204107430E+02 -0.47960073678E+03 -0.97798586356E+03  0.18543240298E+04  0.15000003267E+04 0.  0.
       -6    2    5    5    0  502 -0.67459372127E+03 -0.10683994054E+03 -0.68791393368E+03  0.98436641594E+03  0.17105612822E+03 0.  0.
       25    1    5    5    0    0  0.71979782870E+03 -0.37276079625E+03 -0.29007192989E+03  0.86995761387E+03  0.12500000000E+03 0.  0.
      -24    1    6    6    0    0 -0.54500615410E+03 -0.94595213281E+02 -0.62896838706E+03  0.84139950237E+03  0.79824358925E+02 0.  0.
       -5    1    6    6    0  502 -0.12958756717E+03 -0.12244727258E+02 -0.58945546611E+02  0.14296691356E+03  0.46999998093E+01 0.  1.
       24    1    4    4    0    0 -0.90154710351E+02  0.27329520376E+03 -0.10316049512E+04  0.10739640794E+04  0.79824358925E+02 0.  1.
        5    1    4    4  502    0  0.44950602921E+02  0.20630553303E+03 -0.87791762574E+03  0.90296399554E+03  0.46999998093E+01 0. -1.
</event>
<event>
11   0  0.2741000E-04  0.2449555E+04  0.7818609E-02  0.8075147E-01
        1   -1    0    0  501    0  0.00000000000E+00  0.00000000000E+00  0.18234315961E+04  0.18234315961E+04  0.00000000000E+00 0. -1.
       -1   -1    0    0    0  501  0.00000000000E+00  0.00000000000E+00 -0.82266867932E+03  0.82266867932E+03  0.00000000000E+00 0.  1.
  9900113    2    1    2    0    0  0.17053025658E-12  0.11368683772E-12  0.10007629168E+04  0.26461002754E+04  0.24495551131E+04 0.  0.
       -6    2    3    3    0  502  0.19160352071E+03  0.64657037244E+03  0.67493255475E+03  0.96951637183E+03  0.17222916742E+03 0.  0.
  8000001    2    3    3  502    0 -0.19160352071E+03 -0.64657037244E+03  0.32583036202E+03  0.16765839036E+04  0.15000010018E+04 0.  0.
        6    2    5    5  502    0 -0.58861953727E+03 -0.46246360636E+03 -0.36440659794E+03  0.84980153826E+03  0.17036707120E+03 0.  0.
       25    1    5    5    0    0  0.39701601656E+03 -0.18410676609E+03  0.69023695996E+03  0.82678236533E+03  0.12500000000E+03 0.  0.
       24    1    6    6    0    0 -0.47076423848E+03 -0.42943284249E+03 -0.33282436469E+03  0.72330873107E+03  0.79824358925E+02 0.  0.
        5    1    6    6  502    0 -0.11785529879E+03 -0.33030763865E+02 -0.31582233249E+02  0.12649280719E+03  0.46999998093E+01 0. -1.
      -24    1    4    4    0    0  0.11051285022E+03  0.28479891323E+03  0.39065284639E+03  0.50229979665E+03  0.79824358925E+02 0. -1.
       -5    1    4    4    0  502  0.81090670488E+02  0.36177145921E+03  0.28427970836E+03  0.46721657518E+03  0.46999998093E+01 0.  1.
</event>
<event>
11   0  0.2741000E-04  0.2509379E+04  0.7818609E-02  0.8054341E-01
       -1   -1    0    0    0  501  0.00000000000E+00  0.00000000000E+00  0.12710576740E+04  0.12710576740E+04  0.00000000000E+00 0.  1.
        1   -1    0    0  501    0  0.00000000000E+00  0.00000000000E+00 -0.12385317592E+04  0.12385317592E+04  0.00000000000E+00 0. -1.
  9900113    2    1    2    0    0 -0.11368683772E-12 -0.28421709430E-13  0.32525914850E+02  0.25095894332E+04  0.25093786459E+04 0.  0.
        6    2    3    3  502    0  0.61108895127E+03 -0.18365861917E+03 -0.46136813866E+03  0.80633027627E+03  0.17363110404E+03 0.  0.
 -8000001    2    3    3    0  502 -0.61108895127E+03  0.18365861917E+03  0.49389405351E+03  0.17032591570E+04  0.15000000750E+04 0.  0.
       -6    2    5    5    0  502  0.45271408916E+03 -0.27623345924E+02 -0.50558605556E+02  0.48327117524E+03  0.15900239137E+03 0.  0.
       25    1    5    5    0    0 -0.10638030404E+04  0.21128196509E+03  0.54445265907E+03  0.12199879817E+04  0.12500000000E+03 0.  0.
      -24    1    6    6    0    0  0.46126005392E+03 -0.32660114442E+02 -0.46437970303E+02  0.47154632198E+03  0.79824358925E+02 0.  0.
       -5    1    6    6    0  502 -0.85459647599E+01  0.50367685179E+01 -0.41206352533E+01  0.11724853256E+02  0.46999998093E+01 0.  1.
       24    1    4    4    0    0  0.59246792426E+03 -0.20484515765E+03 -0.44879514900E+03  0.77509276473E+03  0.79824358925E+02 0. -1.
        5    1    4    4  502    0  0.18621027007E+02  0.21186538484E+02 -0.12572989669E+02  0.31237511539E+02  0.46999998093E+01 0. -1.
</event>
<event>
11   0  0.2741000E-04  0.2473504E+04  0.7818609E-02  0.8066745E-01
        2   -1    0    0  501    0  0.00000000000E+00  0.00000000000E+00  0.18949112837E+04  0.18949112837E+04  0.00000000000E+00 0. -1.
       -2   -1    0    0    0  501  0.00000000000E+00  0.00000000000E+00 -0.80719131510E+03  0.80719131510E+03  0.00000000000E+00 0.  1.
  9900113    2    1    2    0    0 -0.11368683772E-12  0.00000000000E+00  0.10877199686E+04  0.27021025988E+04  0.24735043409E+04 0.  0.
       -6    2    3    3    0  502  0.56332777421E+03 -0.48555012858E+03  0.13374445018E+03  0.77514451293E+03  0.17281298970E+03 0.  0.
  8000001    2    3    3  502    0 -0.56332777421E+03  0.48555012858E+03  0.95397551843E+03  0.19269580859E+04  0.15000003555E+04 0.  0.
        6    2    5    5  502    0  0.38620363664E+03  0.15316766598E+03 -0.10172833426E+03  0.46332437957E+03  0.17806527977E+03 0.  0.
       25    1    5    5    0    0 -0.94953141085E+03  0.33238246260E+03  0.10557038527E+04  0.14636337063E+04  0.12500000000E+03 0.  0.
       24    1    6    6    0    0  0.24155530136E+03  0.13832311092E+03 -0.68890300667E+01  0.28965778713E+03  0.79824358925E+02 0.  0.
        5    1    6    6  502    0  0.14464833528E+03  0.14844555059E+02 -0.94839304196E+02  0.17366659245E+03  0.46999998093E+01 0. -1.
      -24    1    4    4    0    0  0.18646625602E+03 -0.10742500131E+03  0.34010565520E+02  0.23203112374E+03  0.79824358925E+02 0.  0.
       -5    1    4    4    0  502  0.37686151819E+03 -0.37812512727E+03  0.99733884661E+02  0.54311338919E+03  0.46999998093E+01 0.  1.
</event>
<event>
11   0  0.2741000E-04  0.2490090E+04  0.7818609E-02  0.8060984E-01
       -2   -1    0    0    0  501  0.00000000000E+00  0.00000000000E+00  0.11571196102E+04  0.11571196102E+04  0.00000000000E+00 0.  1.
        2   -1    0    0  501    0  0.00000000000E+00  0.00000000000E+00 -0.13396509997E+04  0.13396509997E+04  0.00000000000E+00 0. -1.
  9900113    2    1    2    0    0  0.00000000000E+00  0.00000000000E+00 -0.18253138946E+03  0.24967706099E+04  0.24900895105E+04 0.  0.
        6    2    3    3  502    0 -0.49894141132E+03  0.27855794615E+03  0.47471781733E+03  0.76226345591E+03  0.17073812940E+03 0.  0.
 -8000001    2    3    3    0  502  0.49894141132E+03 -0.27855794615E+03 -0.65724920679E+03  0.17345071540E+04  0.15000004954E+04 0.  0.
       -6    2    5    5    0  502  0.26520304206E+03  0.56019174889E+03 -0.55385375512E+03  0.84881516716E+03  0.17200510717E+03 0.  0.
       25    1    5    5    0    0  0.23373836926E+03 -0.83874969504E+03 -0.10339545167E+03  0.88569198687E+03  0.12500000000E+03 0.  0.
      -24    1    6    6    0    0  0.12041048715E+03  0.39980116488E+03 -0.39816084561E+03  0.58244625856E+03  0.79824358925E+02 0. -1.
       -5    1    6    6    0  502  0.14479255491E+03  0.16039058401E+03 -0.15569290951E+03  0.26636890860E+03  0.46999998093E+01 0.  1.
       24    1    4    4    0    0 -0.23891430213E+03  0.10314473138E+03  0.15009331903E+03  0.31083566730E+03  0.79824358925E+02 0. -1.
        5    1    4    4  502    0 -0.26002710919E+03  0.17541321477E+03  0.32462449830E+03  0.45142778860E+03  0.46999998093E+01 0. -1.
</event>
<event>
11   0  0.2741000E-04  0.2495618E+04  0.7818609E-02  0.8059073E-01
        2   -1    0    0  501    0  0.00000000000E+00  0.00000000000E+00  0.23841817552E+04  0.23841817552E+04  0.00000000000E+00 0. -1.
       -2   -1    0    0    0  501  0.00000000000E+00  0.00000000000E+00 -0.65306590556E+03  0.65306590556E+03  0.00000000000E+00 0.  1.
  9900113    2    1    2    0    0 -0.14210854715E-13 -0.11368683772E-12  0.17311158496E+04  0.30372476607E+04  0.24956184139E+04 0.  0.
        6    2    3    3  502    0  0.82868305506E+02  0.76210576885E+03  0.75822411847E+03  0.10919484255E+04  0.17255489322E+03 0.  0.
 -8000001    2    3    3    0  502 -0.82868305506E+02 -0.76210576885E+03  0.97289173117E+03  0.19452992352E+04  0.14999994784E+04 0.  0.
       -6    2    5    5    0  502 -0.23600653276E+03 -0.35473388971E+03  0.13051701729E+04  0.13836613382E+04  0.17179727140E+03 0.  0.
       25    1    5    5    0    0  0.15313822726E+03 -0.40737187914E+03 -0.33227844175E+03  0.56163789706E+03  0.12500000000E+03 0.  0.
      -24    1    6    6    0    0 -0.94473264475E+02 -0.88886647924E+02  0.54815934978E+03  0.56892586064E+03  0.79824358925E+02 0. -1.
       -5    1    6    6    0  502 -0.14153326829E+03 -0.26584724179E+03  0.75701082314E+03  0.81473547753E+03  0.46999998093E+01 0.  1.
       24    1    4    4    0    0  0.29062219454E+01  0.56641902447E+03  0.51540670626E+03  0.76997075174E+03  0.79824358925E+02 0.  1.
        5    1    4    4  502    0  0.79962083561E+02  0.19568674439E+03  0.24281741221E+03  0.32197767377E+03  0.46999998093E+01 0. -1.
</event>
<event>
11   0  0.2741000E-04  0.2693375E+04  0.7818609E-02  0.7993924E-01
       -2   -1    0    0    0  501  0.00000000000E+00  0.00000000000E+00  0.84206724530E+03  0.84206724530E+03  0.00000000000E+00 0.  1.
        2   -1    0    0  501    0  0.00000000000E+00  0.00000000000E+00 -0.21537077587E+04  0.21537077587E+04  0.00000000000E+00 0. -1.
  9900113    2    1    2    0    0  0.14210854715E-13 -0.56843418861E-13 -0.13116405134E+04  0.29957750040E+04  0.26933746561E+04 0.  0.
       -6    2    3    3    0  502 -0.11781058918E+03  0.25100357940E+03 -0.14285925955E+04  0.14658860996E+04  0.17624732991E+03 0.  0.
  8000001    2    3    3  502    0  0.11781058918E+03 -0.25100357940E+03  0.11695208210E+03  0.15298889044E+04  0.15000000462E+04 0.  0.
        6    2    5    5  502    0 -0.21869562698E+03 -0.74759196614E+03 -0.22425700574E+03  0.82854369626E+03  0.17167389695E+03 0.  0.
       25    1    5    5    0    0  0.33650621616E+03  0.49658838674E+03  0.34120908784E+03  0.70134520814E+03  0.12500000000E+03 0.  0.
       24    1    6    6    0    0 -0.18986250533E+03 -0.62340169689E+03 -0.24202482721E+03  0.69973237161E+03  0.79824358925E+02 0.  0.
        5    1    6    6  502    0 -0.28833121647E+02 -0.12419026925E+03  0.17767821468E+02  0.12881132465E+03  0.46999998093E+01 0. -1.
      -24    1    4    4    0    0 -0.11865117777E+03  0.25884070757E+03 -0.14260148131E+04  0.14563539368E+04  0.79824358925E+02 0.  0.
       -5    1    4    4    0  502  0.84058859026E+00 -0.78371281692E+01 -0.25777824308E+01  0.95321627969E+01  0.46999998093E+01 0.  1.
</event>
<event>
11   0  0.2741000E-04  0.2519724E+04  0.7818609E-02  0.8050804E-01
        2   -1    0    0  501    0  0.00000000000E+00  0.00000000000E+00  0.23268732960E+04  0.23268732960E+04  0.00000000000E+00 0. -1.
       -2   -1    0    0    0  501  0.00000000000E+00  0.00000000000E+00 -0.68213926370E+03  0.68213926370E+03  0.00000000000E+00 0.  1.
  9900113    2    1    2    0    0  0.00000000000E+00  0.00000000000E+00  0.16447340323E+04  0.30090125597E+04  0.25197235062E+04 0.  0.
        6    2    3    3  502    0 -0.28386878889E+03 -0.66043155414E+03  0.95642109937E+03  0.12088651524E+04  0.17280714791E+03 0.  0.
 -8000001    2    3    3    0  502  0.28386878889E+03  0.66043155414E+03  0.68831293295E+03  0.18001474073E+04  0.15000015558E+04 0.  0.
       -6    2    5    5    0  502 -0.12666646255E+03  0.90635681734E+03  0.86881442571E+03  0.12736265467E+04  0.17250797409E+03 0.  0.
       25    1    5    5    0    0  0.41053525144E+03 -0.24592526320E+03 -0.18050149276E+03  0.52652086059E+03  0.12500000000E+03 0.  0.
      -24    1    6    6    0    0 -0.21878555363E+02  0.32860019315E+03  0.25434305174E+03  0.42369691333E+03  0.79824358925E+02 0.  0.
       -5    1    6    6    0  502 -0.10478790719E+03  0.57775662420E+03  0.61447137397E+03  0.84992963339E+03  0.46999998093E+01 0.  1.
       24    1    4    4    0    0 -0.13118668037E+03 -0.44923884876E+03  0.55641825575E+03  0.73143604775E+03  0.79824358925E+02 0.  1.
        5    1    4    4  502    0 -0.15268210852E+03 -0.21119270538E+03  0.40000284361E+03  0.47742910465E+03  0.46999998093E+01 0. -1.
</event>
<event>
11   0  0.2741000E-04  0.2499694E+04  0.7818609E-02  0.8057669E-01
        2   -1    0    0  501    0  0.00000000000E+00  0.00000000000E+00  0.13478934725E+04  0.13478934725E+04  0.00000000000E+00 0. -1.
       -2   -1    0    0    0  501  0.00000000000E+00  0.00000000000E+00 -0.11589322833E+04  0.11589322833E+04  0.00000000000E+00 0.  1.
  9900113    2    1    2    0    0  0.00000000000E+00  0.00000000000E+00  0.18896118924E+03  0.25068257558E+04  0.24996937890E+04 0.  0.
        6    2    3    3  502    0 -0.69837426916E+03 -0.20630317200E+03  0.36090137586E+03  0.83056384891E+03  0.17116917197E+03 0.  0.
 -8000001    2    3    3    0  502  0.69837426916E+03  0.20630317200E+03 -0.17194018661E+03  0.16762619069E+04  0.15000009780E+04 0.  0.
       -6    2    5    5    0  502  0.65914214063E+03  0.15478041447E+03  0.58189654528E+03  0.90939257458E+03  0.17310669265E+03 0.  0.
       25    1    5    5    0    0  0.39232128524E+02  0.51522757532E+02 -0.75383673189E+03  0.76686933229E+03  0.12500000000E+03 0.  0.
      -24    1    6    6    0    0  0.30040829636E+03  0.13590956756E+03  0.29684683205E+03  0.45078434428E+03  0.79824358925E+02 0.  0.
       -5    1    6    6    0  502  0.35873384427E+03  0.18870846915E+02  0.28504971323E+03  0.45860823030E+03  0.46999998093E+01 0.  1.
       24    1    4    4    0    0 -0.45645737018E+03 -0.11701484884E+03  0.16122932358E+03  0.50439332737E+03  0.79824358925E+02 0.  1.
        5    1    4    4  502    0 -0.24191689898E+03 -0.89288323168E+02  0.19967205228E+03  0.32617052154E+03  0.46999998093E+01 0. -1.
</event>
<event>
11   0  0.2741000E-04  0.2514729E+04  0.7818609E-02  0.8052510E-01
       -1   -1    0    0    0  501  0.00000000000E+00  0.00000000000E+00  0.12204333326E+04  0.12204333326E+04  0.00000000000E+00 0.  1.
        1   -1    0    0  501    0  0.00000000000E+00  0.00000000000E+00 -0.12954137329E+04  0.12954137329E+04  0.00000000000E+00 0. -1.
  9900113    2    1    2    0    0  0.00000000000E+00  0.00000000000E+00 -0.74980400348E+02  0.25158470656E+04  0.25147294878E+04 0.  0.
        6    2    3    3  502    0 -0.57424987598E+02 -0.32362734903E+03 -0.75135621820E+03  0.83789697882E+03  0.17176405400E+03 0.  0.
 -8000001    2    3    3    0  502  0.57424987598E+02  0.32362734903E+03  0.67637581785E+03  0.16779500867E+04  0.14999999855E+04 0.  0.
       -6    2    5    5    0  502 -0.19736302142E+03  0.34383090617E+03 -0.38506993503E+03  0.57903371159E+03  0.17271169628E+03 0.  0.
       25    1    5    5    0    0  0.25478800902E+03 -0.20203557139E+02  0.10614457529E+04  0.10989163751E+04  0.12500000000E+03 0.  0.
      -24    1    6    6    0    0 -0.50013964567E+02  0.16012190256E+03 -0.10616302817E+03  0.21396947717E+03  0.79824358925E+02 0. -1.
       -5    1    6    6    0  502 -0.14734905685E+03  0.18370900361E+03 -0.27890690686E+03  0.36506423442E+03  0.46999998093E+01 0.  1.
       24    1    4    4    0    0 -0.28708180054E+01 -0.55688686209E+02 -0.19480461589E+03  0.21778484340E+03  0.79824358925E+02 0.  0.
        5    1    4    4  502    0 -0.54554169593E+02 -0.26793866282E+03 -0.55655160231E+03  0.62011213541E+03  0.46999998093E+01 0. -1.
</event>
<event>
11   0  0.2741000E-04  0.2489495E+04  0.7818609E-02  0.8061189E-01
       -2   -1    0    0    0  501  0.00000000000E+00  0.00000000000E+00  0.62663750950E+03  0.62663750950E+03  0.00000000000E+00 0.  1.
        2   -1    0    0  501    0  0.00000000000E+00  0.00000000000E+00 -0.24725562259E+04  0.24725562259E+04  0.00000000000E+00 0. -1.
  9900113    2    1    2    0    0 -0.56843418861E-13 -0.11368683772E-12 -0.18459187164E+04  0.30991937354E+04  0.24894951098E+04 0.  0.
        6    2    3    3  502    0 -0.48108139256E+03  0.39165989911E+03 -0.11811760328E+04  0.13451366670E+04  0.17140317862E+03 0.  0.
 -8000001    2    3    3    0  502  0.48108139256E+03 -0.39165989911E+03 -0.66474268359E+03  0.17540570684E+04  0.14999988603E+04 0.  0.
       -6    2    5    5    0  502 -0.23526462088E+03 -0.72262591244E+03 -0.53508622567E+03  0.94465858181E+03  0.16889320923E+03 0.  0.
       25    1    5    5    0    0  0.71634601344E+03  0.33096601333E+03 -0.12965645793E+03  0.80939848655E+03  0.12500000000E+03 0.  0.
      -24    1    6    6    0    0 -0.23742648952E+03 -0.57386707572E+03 -0.39549955286E+03  0.74059880037E+03  0.79824358925E+02 0.  0.
       -5    1    6    6    0  502  0.21618686379E+01 -0.14875883673E+03 -0.13958667281E+03  0.20405978145E+03  0.46999998093E+01 0.  1.
       24    1    4    4    0    0 -0.39632950276E+03  0.24692297310E+03 -0.82294250527E+03  0.94955480340E+03  0.79824358925E+02 0. -1.
        5    1    4    4  502    0 -0.84751889807E+02  0.14473692601E+03 -0.35823352751E+03  0.39558186360E+03  0.46999998093E+01 0. -1.
</event>
<event>
11   0  0.2741000E-04  0.2638654E+04  0.7818609E-02  0.8011360E-01
       -2   -1    0    0    0  501  0.00000000000E+00  0.00000000000E+00  0.81207280835E+03  0.81207280835E+03  0.00000000000E+00 0.  1.
        2   -1    0    0  501    0  0.00000000000E+00  0.00000000000E+00 -0.21434328191E+04  0.21434328191E+04  0.00000000000E+00 0. -1.
  9900113    2    1    2    0    0 -0.11368683772E-12  0.11368683772E-12 -0.13313600107E+04  0.29555056274E+04  0.26386538302E+04 0.  0.
        6    2    3    3  502    0  0.64181658030E+03 -0.46300032689E+03 -0.17197748818E+02  0.80997068488E+03  0.17163601705E+03 0.  0.
 -8000001    2    3    3    0  502 -0.64181658030E+03  0.46300032689E+03 -0.13141622619E+04  0.21455349425E+04  0.14999999712E+04 0.  0.
       -6    2    5    5    0  502 -0.91035292297E+03 -0.11256909347E+03 -0.38047655630E+03  0.10094073433E+04  0.18090475271E+03 0.  0.
       25    1    5    5    0    0  0.26853634268E+03  0.57556942036E+03 -0.93368570561E+03  0.11361275993E+04  0.12500000000E+03 0.  0.
      -24    1    6    6    0    0 -0.58121763847E+03 -0.12102733060E+03 -0.18719968396E+03  0.62759637346E+03  0.79824358925E+02 0.  0.
       -5    1    6    6    0  502 -0.32913528450E+03  0.84582371311E+01 -0.19327687234E+03  0.38181096980E+03  0.46999998093E+01 0.  1.
       24    1    4    4    0    0  0.46724591980E+03 -0.30825764961E+03 -0.72825122723E+02  0.57010258278E+03  0.79824358925E+02 0.  1.
        5    1    4    4  502    0  0.17457066050E+03 -0.15474267728E+03  0.55627373906E+02  0.23986810210E+03  0.46999998093E+01 0. -1.
</event>
<event>
11   0  0.2741000E-04  0.2545682E+04  0.7818609E-02  0.8042006E-01
       -2   -1    0    0    0  501  0.00000000000E+00  0.00000000000E+00  0.64728255255E+03  0.64728255255E+03  0.00000000000E+00 0.  1.
        2   -1    0    0  501    0  0.00000000000E+00  0.00000000000E+00 -0.25029631365E+04  0.25029631365E+04  0.00000000000E+00 0. -1.
  9900113    2    1    2    0    0  0.28421709430E-13 -0.21316282073E-13 -0.18556805839E+04  0.31502456890E+04  0.25456821231E+04 0.  0.
        6    2    3    3  502    0  0.20389870306E+03  0.32301791356E+02  0.37091038017E+03  0.45759993256E+03  0.17089500088E+03 0.  0.
 -8000001    2    3    3    0  502 -0.20389870306E+03 -0.32301791356E+02 -0.22265909641E+04  0.26926457565E+04  0.15000052539E+04 0.  0.
       -6    2    5    5    0  502 -0.58836088353E+03  0.25863599594E+03 -0.35261444606E+03  0.75360760458E+03  0.17471796258E+03 0.  0.
       25    1    5    5    0    0  0.38446218047E+03 -0.29093778730E+03 -0.18739765180E+04  0.19390381519E+04  0.12500000000E+03 0.  0.
      -24    1    6    6    0    0 -0.35843305458E+03  0.10568490728E+03 -0.14758178618E+03  0.40962893713E+03  0.79824358925E+02 0.  0.
       -5    1    6    6    0  502 -0.22992782896E+03  0.15295108867E+03 -0.20503265987E+03  0.34397866746E+03  0.46999998093E+01 0.  1.
       24    1    4    4    0    0  0.73648068617E+02  0.16663857864E+02  0.27163435298E+03  0.29301684622E+03  0.79824358925E+02 0.  0.
        5    1    4    4  502    0  0.13025063445E+03  0.15637933492E+02  0.99276027191E+02  0.16458308634E+03  0.46999998093E+01 0. -1.
</event>
<event>
11   0  0.2741000E-04  0.2494032E+04  0.7818609E-02  0.8059621E-01
       -2   -1    0    0    0  501  0.00000000000E+00  0.00000000000E+00  0.92741941382E+03  0.92741941382E+03  0.00000000000E+00 0.  1.
        2   -1    0    0  501    0  0.00000000000E+00  0.00000000000E+00 -0.16767485220E+04  0.16767485220E+04  0.00000000000E+00 0. -1.
  9900113    2    1    2    0    0 -0.11368683772E-12  0.00000000000E+00 -0.74932910817E+03  0.26041679358E+04  0.24940321821E+04 0.  0.
       -6    2    3    3    0  502  0.76019883698E+03 -0.13872948634E+03 -0.10740665559E+03  0.79883788232E+03  0.17163225347E+03 0.  0.
  8000001    2    3    3  502    0 -0.76019883698E+03  0.13872948634E+03 -0.64192245258E+03  0.18053300535E+04  0.15000013416E+04 0.  0.
        6    2    5    5  502    0 -0.75210504141E+03  0.72257063956E+03 -0.58202902611E+03  0.12052065460E+04  0.16122874679E+03 0.  0.
       25    1    5    5    0    0 -0.80937955662E+01 -0.58384115322E+03 -0.59893426469E+02  0.60012350750E+03  0.12500000000E+03 0.  0.
       24    1    6    6    0    0 -0.58095570515E+03  0.62242218563E+03 -0.49967052944E+03  0.99043499271E+03  0.79824358925E+02 0.  0.
        5    1    6    6  502    0 -0.17114933626E+03  0.10014845393E+03 -0.82358496666E+02  0.21477155328E+03  0.46999998093E+01 0. -1.
      -24    1    4    4    0    0  0.65198637313E+03 -0.63965887475E+02 -0.91097122406E+02  0.66621954301E+03  0.79824358925E+02 0.  0.
       -5    1    4    4    0  502  0.10821246385E+03 -0.74763598867E+02 -0.16309533188E+02  0.13261833930E+03  0.46999998093E+01 0.  1.
</event>
<event>
11   0  0.2741000E-04  0.2515550E+04  0.7818609E-02  0.8052229E-01
       -3   -1    0    0    0  501  0.00000000000E+00  0.00000000000E+00  0.42555959287E+03  0.42555959287E+03  0.00000000000E+00 0.  1.
        3   -1    0    0  501    0  0.00000000000E+00  0.00000000000E+00 -0.37174541749E+04  0.37174541749E+04  0.00000000000E+00 0. -1.
  9900113    2    1    2    0    0 -0.28421709430E-13  0.00000000000E+00 -0.32918945820E+04  0.41430137677E+04  0.25155502660E+04 0.  0.
       -6    2    3    3    0  502 -0.18942365045E+03  0.74687181067E+03 -0.14109339877E+04  0.16168030520E+04  0.17210046598E+03 0.  0.
  8000001    2    3    3  502    0  0.18942365045E+03 -0.74687181067E+03 -0.18809605943E+04  0.25262107157E+04  0.15000096673E+04 0.  0.
        6    2    5    5  502    0 -0.10859659662E+03  0.42353145046E+03 -0.56726320334E+03  0.73733238105E+03  0.17521240812E+03 0.  0.
       25    1    5    5    0    0  0.29802024707E+03 -0.11704032611E+04 -0.13136973910E+04  0.17888783347E+04  0.12500000000E+03 0.  0.
       24    1    6    6    0    0 -0.65022695985E+00  0.12250550220E+03 -0.13047678962E+03  0.19596974708E+03  0.79824358925E+02 0.  1.
        5    1    6    6  502    0 -0.10794636966E+03  0.30102594825E+03 -0.43678641372E+03  0.54136263396E+03  0.46999998093E+01 0. -1.
      -24    1    4    4    0    0 -0.38669318416E+02  0.29674284438E+03 -0.64835199322E+03  0.71852896063E+03  0.79824358925E+02 0. -1.
       -5    1    4    4    0  502 -0.15075433203E+03  0.45012896629E+03 -0.76258199448E+03  0.89827409137E+03  0.46999998093E+01 0.  1.
</event>
<event>
11   0  0.2741000E-04  0.2419587E+04  0.7818609E-02  0.8085802E-01
       -2   -1    0    0    0  501  0.00000000000E+00  0.00000000000E+00  0.10318180154E+04  0.10318180154E+04  0.00000000000E+00 0.  1.
        2   -1    0    0  501    0  0.00000000000E+00  0.00000000000E+00 -0.14184673980E+04  0.14184673980E+04  0.00000000000E+00 0. -1.
  9900113    2    1    2    0    0  0.00000000000E+00  0.28421709430E-13 -0.38664938263E+03  0.24502854135E+04  0.24195869198E+04 0.  0.
        6    2    3    3  502    0  0.64226849506E+03  0.20480484474E+03 -0.40533853191E+03  0.80565665703E+03  0.17415360860E+03 0.  0.
 -8000001    2    3    3    0  502 -0.64226849506E+03 -0.20480484474E+03  0.18689149280E+02  0.16446287564E+04  0.15000002060E+04 0.  0.
       -6    2    5    5    0  502  0.32877710541E+03 -0.38872083534E+03  0.29173542952E+03  0.61170382162E+03  0.17284019115E+03 0.  0.
       25    1    5    5    0    0 -0.97104560047E+03  0.18391599060E+03 -0.27304628024E+03  0.10329249348E+04  0.12500000000E+03 0.  0.
      -24    1    6    6    0    0  0.16216192764E+03 -0.29511408812E+03  0.17625388479E+03  0.38836345859E+03  0.79824358925E+02 0.  0.
       -5    1    6    6    0  502  0.16661517777E+03 -0.93606747217E+02  0.11548154472E+03  0.22334036303E+03  0.46999998093E+01 0.  1.
       24    1    4    4    0    0  0.34825259083E+03  0.12372550183E+03 -0.30098990575E+03  0.48327499259E+03  0.79824358925E+02 0. -1.
        5    1    4    4  502    0  0.29401590423E+03  0.81079342913E+02 -0.10434862616E+03  0.32238166444E+03  0.46999998093E+01 0. -1.
</event>
<event>
11   0  0.2741000E-04  0.2511403E+04  0.7818609E-02  0.8053648E-01
       -2   -1    0    0    0  501  0.00000000000E+00  0.00000000000E+00  0.10381191693E+04  0.10381191693E+04  0.00000000000E+00 0.  1.
        2   -1    0    0  501    0  0.00000000000E+00  0.00000000000E+00 -0.15188876888E+04  0.15188876888E+04  0.00000000000E+00 0. -1.
  9900113    2    1    2    0    0  0.11368683772E-12  0.00000000000E+00 -0.48076851951E+03  0.25570068580E+04  0.25114031342E+04 0.  0.
       -6    2    3    3    0  502  0.59965023783E+03  0.30570327769E+03 -0.58748108361E+03  0.90945633093E+03  0.17012316876E+03 0.  0.
  8000001    2    3    3  502    0 -0.59965023783E+03 -0.30570327769E+03  0.10671256410E+03  0.16475505271E+04  0.15000000888E+04 0.  0.
        6    2    5    5  502    0  0.41194250214E+03  0.21187986083E+03  0.69902795105E+02  0.50378825462E+03  0.18527413267E+03 0.  0.
       25    1    5    5    0    0 -0.10115927400E+04 -0.51758313851E+03  0.36809768996E+02  0.11437622725E+04  0.12500000000E+03 0.  0.
       24    1    6    6    0    0  0.31210802691E+03  0.18823252711E+03  0.11667915688E+03  0.39093331740E+03  0.79824358925E+02 0.  0.
        5    1    6    6  502    0  0.99834475230E+02  0.23647333713E+02 -0.46776361776E+02  0.11285493722E+03  0.46999998093E+01 0. -1.
      -24    1    4    4    0    0  0.35822438053E+03  0.19894978330E+03 -0.27282670902E+03  0.49871040146E+03  0.79824358925E+02 0.  0.
       -5    1    4    4    0  502  0.24142585730E+03  0.10675349438E+03 -0.31465437459E+03  0.41074592947E+03  0.46999998093E+01 0.  1.
</event>
<event>
11   0  0.2741000E-04  0.2488567E+04  0.7818609E-02  0.8061510E-01
       -2   -1    0    0    0  501  0.00000000000E+00  0.00000000000E+00  0.19475128612E+04  0.19475128612E+04  0.00000000000E+00 0.  1.
        2   -1    0    0  501    0  0.00000000000E+00  0.00000000000E+00 -0.79498407371E+03  0.79498407371E+03  0.00000000000E+00 0. -1.
  9900113    2    1    2    0    0  0.28421709430E-13  0.00000000000E+00  0.11525287875E+04  0.27424969349E+04  0.24885672247E+04 0.  0.
        6    2    3    3  502    0 -0.22459195828E+03  0.43608777706E+03 -0.29823248352E+03  0.59882670064E+03  0.17040160254E+03 0.  0.
 -8000001    2    3    3    0  502  0.22459195828E+03 -0.43608777706E+03  0.14507612710E+04  0.21436702343E+04  0.14999999036E+04 0.  0.
       -6    2    5    5    0  502  0.72411171862E+03 -0.58272233950E+03  0.54412259044E+03  0.10907503024E+04  0.17252165877E+03 0.  0.
       25    1    5    5    0    0 -0.49951976034E+03  0.14663456243E+03  0.90663868059E+03  0.10529199319E+04  0.12500000000E+03 0.  0.
      -24    1    6    6    0    0  0.23739786691E+03 -0.25007871800E+03  0.17127112245E+03  0.39319567403E+03  0.79824358925E+02 0. -1.
       -5    1    6    6    0  502  0.48671385170E+03 -0.33264362149E+03  0.37285146800E+03  0.69755462836E+03  0.46999998093E+01 0.  1.
       24    1    4    4    0    0 -0.16265179476E+03  0.24381539939E+03 -0.24397302551E+03  0.38961047313E+03  0.79824358925E+02 0. -1.
        5    1    4    4  502    0 -0.61940163520E+02  0.19227237767E+03 -0.54259458010E+02  0.20921622751E+03  0.46999998093E+01 0. -1.
</event>
<event>
11   0  0.2741000E-04  0.2494928E+04  0.7818609E-02  0.8059312E-01
       -2   -1    0    0    0  501  0.00000000000E+00  0.00000000000E+00  0.42683376547E+03  0.42683376547E+03  0.00000000000E+00 0.  1.
        2   -1    0    0  501    0  0.00000000000E+00  0.00000000000E+00 -0.36458373738E+04  0.36458373738E+04  0.00000000000E+00 0. -1.
  9900113    2    1    2    0    0 -0.56843418861E-13  0.00000000000E+00 -0.32190036084E+04  0.40726711393E+04  0.24949280507E+04 0.  0.
       -6    2    3    3    0  502  0.49879250739E+03 -0.17762181891E+03 -0.19788053774E+04  0.20556352484E+04  0.17211065385E+03 0.  0.
  8000001    2    3    3  502    0 -0.49879250739E+03  0.17762181891E+03 -0.12401982310E+04  0.20170358909E+04  0.14999995523E+04 0.  0.
        6    2    5    5  502    0  0.20253416684E+03  0.53166947244E+03 -0.65359797657E+02  0.59820567218E+03  0.17287453952E+03 0.  0.
       25    1    5    5    0    0 -0.70132667423E+03 -0.35404765353E+03 -0.11748384334E+04  0.14188302187E+04  0.12500000000E+03 0.  0.
       24    1    6    6    0    0  0.11202156603E+03  0.16278972491E+03 -0.21649030731E+01  0.21313362211E+03  0.79824358925E+02 0.  0.
        5    1    6    6  502    0  0.90512600815E+02  0.36887974753E+03 -0.63194894584E+02  0.38507205007E+03  0.46999998093E+01 0. -1.
      -24    1    4    4    0    0  0.16847147146E+03 -0.57892762482E+02 -0.90450084963E+03  0.92532584742E+03  0.79824358925E+02 0. -1.
       -5    1    4    4    0  502  0.33032103593E+03 -0.11972905643E+03 -0.10743045277E+04  0.11303094010E+04  0.46999998093E+01 0.  1.
</event>
<event>
11   0  0.2741000E-04  0.2510135E+04  0.7818609E-02  0.8054082E-01
       -2   -1    0    0    0  501  0.00000000000E+00  0.00000000000E+00  0.63068771448E+03  0.63068771448E+03  0.00000000000E+00 0.  1.
        2   -1    0    0  501    0  0.00000000000E+00  0.00000000000E+00 -0.24975822270E+04  0.24975822270E+04  0.00000000000E+00 0. -1.
  9900113    2    1    2    0    0 -0.11368683772E-12  0.00000000000E+00 -0.18668945125E+04  0.31282699414E+04  0.25101349975E+04 0.  0.
        6    2    3    3  502    0 -0.37116388627E+03  0.43668148470E+03  0.80982353568E+02  0.60385375772E+03  0.17212748058E+03 0.  0.
 -8000001    2    3    3    0  502  0.37116388627E+03 -0.43668148470E+03 -0.19478768660E+04  0.25244161837E+04  0.14999998113E+04 0.  0.
       -6    2    5    5    0  502 -0.31399021867E+03 -0.16063659824E+03 -0.16860171110E+04  0.17307963389E+04  0.16913986444E+03 0.  0.
       25    1    5    5    0    0  0.68515410495E+03 -0.27604488646E+03 -0.26185975499E+03  0.79361984486E+03  0.12500000000E+03 0.  0.
      -24    1    6    6    0    0 -0.14670727406E+03 -0.34823171565E+02 -0.96626244955E+03  0.98120880919E+03  0.79824358925E+02 0. -1.
       -5    1    6    6    0  502 -0.16728294462E+03 -0.12581342668E+03 -0.71975466150E+03  0.74958752967E+03  0.46999998093E+01 0.  1.
       24    1    4    4    0    0 -0.23013546692E+03  0.18679372575E+03  0.78609083331E+02  0.31686834076E+03  0.79824358925E+02 0.  0.
        5    1    4    4  502    0 -0.14102841935E+03  0.24988775896E+03  0.23732702371E+01  0.28698541696E+03  0.46999998093E+01 0. -1.
</event>
<event>
11   0  0.2741000E-04  0.2541742E+04  0.7818609E-02  0.8043334E-01
        1   -1    0    0  501    0  0.00000000000E+00  0.00000000000E+00  0.15861540819E+04  0.15861540819E+04  0.00000000000E+00 0. -1.
       -1   -1    0    0    0  501  0.00000000000E+00  0.00000000000E+00 -0.10182573929E+04  0.10182573929E+04  0.00000000000E+00 0.  1.
  9900113    2    1    2    0    0  0.00000000000E+00  0.00000000000E+00  0.56789668908E+03  0.26044114748E+04  0.25417420169E+04 0.  0.
       -6    2    3    3    0  502  0.27895867974E+03  0.74527269132E+03  0.57156494634E+00  0.81412904271E+03  0.17191987109E+03 0.  0.
  8000001    2    3    3  502    0 -0.27895867974E+03 -0.74527269132E+03  0.56732512414E+03  0.17902824321E+04  0.15000013536E+04 0.  0.
        6    2    5    5  502    0 -0.29272015365E+03 -0.13792715049E+03 -0.46134057900E+03  0.58910129966E+03  0.17174464833E+03 0.  0.
       25    1    5    5    0    0  0.13761473914E+02 -0.60734554083E+03  0.10286657031E+04  0.12011811324E+04  0.12500000000E+03 0.  0.
       24    1    6    6    0    0 -0.23227637130E+03 -0.92454512572E+02 -0.43655852295E+03  0.50936766858E+03  0.79824358925E+02 0.  0.
        5    1    6    6  502    0 -0.60443782349E+02 -0.45472637917E+02 -0.24782056050E+02  0.79733631073E+02  0.46999998093E+01 0. -1.
      -24    1    4    4    0    0  0.17637148224E+03  0.63217005271E+03 -0.67703848937E+01  0.66118351589E+03  0.79824358925E+02 0.  1.
       -5    1    4    4    0  502  0.10258719749E+03  0.11310263861E+03  0.73419498401E+01  0.15294552682E+03  0.46999998093E+01 0.  1.
</event>
<event>
11   0  0.2741000E-04  0.2413308E+04  0.7818609E-02  0.8088054E-01
       -1   -1    0    0    0  501  0.00000000000E+00  0.00000000000E+00  0.84550206505E+03  0.84550206505E+03  0.00000000000E+00 0.  1.
        1   -1    0    0  501    0  0.00000000000E+00  0.00000000000E+00 -0.17220707271E+04  0.17220707271E+04  0.00000000000E+00 0. -1.
  9900113    2    1    2    0    0  0.11368683772E-12 -0.22737367544E-12 -0.87656866209E+03  0.25675727922E+04  0.24133083980E+04 0.  0.
       -6    2    3    3    0  502 -0.30954652593E+03  0.58221138257E+03  0.53614952601E+02  0.68342008112E+03  0.17146223613E+03 0.  0.
  8000001    2    3    3  502    0  0.30954652593E+03 -0.58221138257E+03 -0.93018361469E+03  0.18841527111E+04  0.15000002453E+04 0.  0.
        6    2    5    5  502    0 -0.40879941681E+03 -0.75488183381E+03 -0.38012183200E+03  0.95462113927E+03  0.17275811468E+03 0.  0.
       25    1    5    5    0    0  0.71834594274E+03  0.17267045124E+03 -0.55006178269E+03  0.92953157179E+03  0.12500000000E+03 0.  0.
       24    1    6    6    0    0 -0.31492935610E+03 -0.67960746220E+03 -0.30488655533E+03  0.81263432238E+03  0.79824358925E+02 0.  0.
        5    1    6    6  502    0 -0.93870060702E+02 -0.75274371612E+02 -0.75235276670E+02  0.14198681689E+03  0.46999998093E+01 0. -1.
      -24    1    4    4    0    0 -0.16372470902E+03  0.20554935182E+03 -0.83212627708E+01  0.27476806232E+03  0.79824358925E+02 0.  1.
       -5    1    4    4    0  502 -0.14582181691E+03  0.37666203075E+03  0.61936215372E+02  0.40865201880E+03  0.46999998093E+01 0.  1.
</event>
<event>
11   0  0.2741000E-04  0.2493783E+04  0.7818609E-02  0.8059707E-01
       -2   -1    0    0    0  501  0.00000000000E+00  0.00000000000E+00  0.10415886310E+04  0.10415886310E+04  0.00000000000E+00 0.  1.
        2   -1    0    0  501    0  0.00000000000E+00  0.00000000000E+00 -0.14926611338E+04  0.14926611338E+04  0.00000000000E+00 0. -1.
  9900113    2    1    2    0    0  0.00000000000E+00 -0.71054273576E-14 -0.45107250275E+03  0.25342497648E+04  0.24937833642E+04 0.  0.
       -6    2    3    3    0  502 -0.10834501336E+03  0.61832280567E+02  0.64095026550E+03  0.67465949509E+03  0.16966531358E+03 0.  0.
  8000001    2    3    3  502    0  0.10834501336E+03 -0.61832280567E+02 -0.10920227682E+04  0.18595902697E+04  0.15000001240E+04 0.  0.
        6    2    5    5  502    0 -0.91001117063E+02  0.95530943680E+02  0.33801386182E+03  0.40180708029E+03  0.17259256787E+03 0.  0.
       25    1    5    5    0    0  0.19934613043E+03 -0.15736322425E+03 -0.14300366301E+04  0.14577831894E+04  0.12500000000E+03 0.  0.
       24    1    6    6    0    0 -0.46830481979E+02 -0.12086892807E+02  0.20365512796E+03  0.22402349529E+03  0.79824358925E+02 0.  0.
        5    1    6    6  502    0 -0.44170635085E+02  0.10761783649E+03  0.13435873386E+03  0.17778358500E+03  0.46999998093E+01 0. -1.
      -24    1    4    4    0    0 -0.13500497525E+03  0.81532514257E+02  0.55230718981E+03  0.57990434936E+03  0.79824358925E+02 0.  1.
       -5    1    4    4    0  502  0.26659961884E+02 -0.19700233690E+02  0.88643075692E+02  0.94755145725E+02  0.46999998093E+01 0.  1.
</event>
<event>
11   0  0.2741000E-04  0.2509539E+04  0.7818609E-02  0.8054286E-01
        1   -1    0    0  501    0  0.00000000000E+00  0.00000000000E+00  0.19338231010E+04  0.19338231010E+04  0.00000000000E+00 0. -1.
       -1   -1    0    0    0  501  0.00000000000E+00  0.00000000000E+00 -0.81416291298E+03  0.81416291298E+03  0.00000000000E+00 0.  1.
  9900113    2    1    2    0    0  0.00000000000E+00  0.00000000000E+00  0.11196601881E+04  0.27479860140E+04  0.25095394391E+04 0.  0.
       -6    2    3    3    0  502 -0.39105034278E+03  0.40335655187E+03 -0.25090955356E+03  0.63988826730E+03  0.17573989880E+03 0.  0.
  8000001    2    3    3  502    0  0.39105034278E+03 -0.40335655187E+03  0.13705697416E+04  0.21080977467E+04  0.14999992715E+04 0.  0.
        6    2    5    5  502    0  0.25459463777E+03 -0.87459455072E+02 -0.27497299769E+03  0.42231987224E+03  0.17400097460E+03 0.  0.
       25    1    5    5    0    0  0.13645570501E+03 -0.31589709680E+03  0.16455427393E+04  0.16857778745E+04  0.12500000000E+03 0.  0.
       24    1    6    6    0    0  0.24495359304E+03 -0.12143517786E+03 -0.24751249343E+03  0.37733688906E+03  0.79824358925E+02 0.  0.
        5    1    6    6  502    0  0.96410447270E+01  0.33975722788E+02 -0.27460504268E+02  0.44982983174E+02  0.46999998093E+01 0. -1.
      -24    1    4    4    0    0 -0.28293052746E+03  0.37186962901E+03 -0.18193721021E+03  0.50774972288E+03  0.79824358925E+02 0. -1.
       -5    1    4    4    0  502 -0.10811981532E+03  0.31486922869E+02 -0.68972343353E+02  0.13213854442E+03  0.46999998093E+01 0.  1.
</event>
<event>
11   0  0.2741000E-04  0.2442448E+04  0.7818609E-02  0.8077659E-01
        2   -1    0    0  501    0  0.00000000000E+00  0.00000000000E+00  0.25721480046E+04  0.25721480046E+04  0.00000000000E+00 0. -1.
       -2   -1    0    0    0  501  0.00000000000E+00  0.00000000000E+00 -0.57982193317E+03  0.57982193317E+03  0.00000000000E+00 0.  1.
  9900113    2    1    2    0    0  0.00000000000E+00 -0.14210854715E-13  0.19923260715E+04  0.31519699378E+04  0.24424478119E+04 0.  0.
        6    2    3    3  502    0 -0.71880090049E+03 -0.13086891637E+01  0.88839451535E+03  0.11556381554E+04  0.17198338341E+03 0.  0.
 -8000001    2    3    3    0  502  0.71880090049E+03  0.13086891637E+01  0.11039315561E+04  0.19963317824E+04  0.14999997525E+04 0.  0.
       -6    2    5    5    0  502  0.59607058999E+01 -0.83826296839E+02 -0.33386762769E+03  0.38441348364E+03  0.17100805692E+03 0.  0.
       25    1    5    5    0    0  0.71284019459E+03  0.85134986002E+02  0.14377991838E+04  0.16119182987E+04  0.12500000000E+03 0.  0.
      -24    1    6    6    0    0  0.67340437300E+02 -0.66231932439E+02 -0.18694330572E+03  0.22414533500E+03  0.79824358925E+02 0.  1.
       -5    1    6    6    0  502 -0.61379731400E+02 -0.17594364400E+02 -0.14692432197E+03  0.16026814864E+03  0.46999998093E+01 0.  1.
       24    1    4    4    0    0 -0.42483130494E+03  0.65851085525E+02  0.51071606724E+03  0.67232494579E+03  0.79824358925E+02 0. -1.
        5    1    4    4  502    0 -0.29396959555E+03 -0.67159774689E+02  0.37767844811E+03  0.48331320963E+03  0.46999998093E+01 0. -1.
</event>
<event>
11   0  0.2741000E-04  0.2483573E+04  0.7818609E-02  0.8063242E-01
       -1   -1    0    0    0  501  0.00000000000E+00  0.00000000000E+00  0.47506213911E+03  0.47506213911E+03  0.00000000000E+00 0.  1.
        1   -1    0    0  501    0  0.00000000000E+00  0.00000000000E+00 -0.32459627696E+04  0.32459627696E+04  0.00000000000E+00 0. -1.
  9900113    2    1    2    0    0  0.00000000000E+00 -0.28421709430E-13 -0.27709006305E+04  0.37210249087E+04  0.24835732458E+04 0.  0.
        6    2    3    3  502    0  0.62081284878E+03  0.15618360723E+03 -0.15439354925E+04  0.16801318117E+04  0.17118465840E+03 0.  0.
 -8000001    2    3    3    0  502 -0.62081284878E+03 -0.15618360723E+03 -0.12269651379E+04  0.20408930970E+04  0.14999997571E+04 0.  0.
       -6    2    5    5    0  502  0.12041354654E+02 -0.47512941003E+03 -0.12207252787E+04  0.13212440132E+04  0.17211213162E+03 0.  0.
       25    1    5    5    0    0 -0.63285420344E+03  0.31894580280E+03 -0.62398592286E+01  0.71964908377E+03  0.12500000000E+03 0.  0.
      -24    1    6    6    0    0 -0.38663186362E+02 -0.32483303317E+03 -0.94386793651E+03  0.10021327014E+04  0.79824358925E+02 0.  0.
       -5    1    6    6    0  502  0.50704541016E+02 -0.15029637686E+03 -0.27685734220E+03  0.31911131178E+03  0.46999998093E+01 0.  1.
       24    1    4    4    0    0  0.33086257112E+03  0.93785784851E+02 -0.10012868286E+04  0.10617029038E+04  0.79824358925E+02 0. -1.
        5    1    4    4  502    0  0.28995027766E+03  0.62397822379E+02 -0.54264866390E+03  0.61842890794E+03  0.46999998093E+01 0. -1.
</event>
<event>
11   0  0.2741000E-04  0.2490629E+04  0.7818609E-02  0.8060797E-01
       -1   -1    0    0    0  501  0.00000000000E+00  0.00000000000E+00  0.88032057508E+03  0.88032057508E+03  0.00000000000E+00 0.  1.
        1   -1    0    0  501    0  0.00000000000E+00  0.00000000000E+00 -0.17616407073E+04  0.17616407073E+04  0.00000000000E+00 0. -1.
  9900113    2    1    2    0    0  0.00000000000E+00  0.00000000000E+00 -0.88132013220E+03  0.26419612824E+04  0.24906292864E+04 0.  0.
        6    2    3    3  502    0 -0.30268777120E+03 -0.70288225713E+03 -0.44945691402E+03  0.90352259976E+03  0.16934643926E+03 0.  0.
 -8000001    2    3    3    0  502  0.30268777120E+03  0.70288225713E+03 -0.43186321817E+03  0.17384386826E+04  0.14999999532E+04 0.  0.
       -6    2    5    5    0  502  0.68819012006E+03  0.55698668662E+03  0.24646023609E+03  0.93491812463E+03  0.17172490028E+03 0.  0.
       25    1    5    5    0    0 -0.38550234886E+03  0.14589557051E+03 -0.67832345426E+03  0.80352055796E+03  0.12500000000E+03 0.  0.
      -24    1    6    6    0    0  0.39151787248E+03  0.31107568023E+03  0.20869363515E+03  0.54770364700E+03  0.79824358925E+02 0.  0.
       -5    1    6    6    0  502  0.29667224758E+03  0.24591100639E+03  0.37766600933E+02  0.38721447764E+03  0.46999998093E+01 0.  1.
       24    1    4    4    0    0 -0.28124384024E+03 -0.62863912501E+03 -0.34751767441E+03  0.77551641470E+03  0.79824358925E+02 0.  0.
        5    1    4    4  502    0 -0.21443930955E+02 -0.74243132121E+02 -0.10193923961E+03  0.12800618505E+03  0.46999998093E+01 0. -1.
</event>
<event>
11   0  0.2741000E-04  0.2494610E+04  0.7818609E-02  0.8059421E-01
       -2   -1    0    0    0  501  0.00000000000E+00  0.00000000000E+00  0.57824686159E+03  0.57824686159E+03  0.00000000000E+00 0.  1.
        2   -1    0    0  501    0  0.00000000000E+00  0.00000000000E+00 -0.26904935156E+04  0.26904935156E+04  0.00000000000E+00 0. -1.
  9900113    2    1    2    0    0  0.00000000000E+00  0.00000000000E+00 -0.21122466540E+04  0.32687403771E+04  0.24946097342E+04 0.  0.
       -6    2    3    3    0  502  0.73178870928E+03 -0.23278607674E+03 -0.47408993120E+03  0.91857775190E+03  0.17123011084E+03 0.  0.
  8000001    2    3    3  502    0 -0.73178870928E+03  0.23278607674E+03 -0.16381567228E+04  0.23501626252E+04  0.15000009481E+04 0.  0.
        6    2    5    5  502    0 -0.57326204705E+03 -0.17175602590E+02  0.78516054180E+02  0.60367988359E+03  0.17128997394E+03 0.  0.
       25    1    5    5    0    0 -0.15852666223E+03  0.24996167933E+03 -0.17166727769E+04  0.17464827416E+04  0.12500000000E+03 0.  0.
       24    1    6    6    0    0 -0.32798740500E+03 -0.18597471345E+02  0.11186416807E+03  0.35609987946E+03  0.79824358925E+02 0.  0.
        5    1    6    6  502    0 -0.24527464206E+03  0.14218687546E+01 -0.33348113886E+02  0.24758000413E+03  0.46999998093E+01 0. -1.
      -24    1    4    4    0    0  0.38138277222E+03 -0.17614452575E+03 -0.30590919650E+03  0.52576808355E+03  0.79824358925E+02 0.  1.
       -5    1    4    4    0  502  0.35040593706E+03 -0.56641550992E+02 -0.16818073470E+03  0.39280966835E+03  0.46999998093E+01 0.  1.
</event>
<event>
11   0  0.2741000E-04  0.2512352E+04  0.7818609E-02  0.8053323E-01
        1   -1    0    0  501    0  0.00000000000E+00  0.00000000000E+00  0.17855800779E+04  0.17855800779E+04  0.00000000000E+00 0. -1.
       -1   -1    0    0    0  501  0.00000000000E+00  0.00000000000E+00 -0.88373437315E+03  0.88373437315E+03  0.00000000000E+00 0.  1.
  9900113    2    1    2    0    0  0.17053025658E-12 -0.11368683772E-12  0.90184570472E+03  0.26693144510E+04  0.25123522769E+04 0.  0.
       -6    2    3    3    0  502  0.21632795037E+03 -0.51567561590E+03  0.89395434098E+03  0.10684533473E+04  0.17239219418E+03 0.  0.
  8000001    2    3    3  502    0 -0.21632795037E+03  0.51567561590E+03  0.78913637371E+01  0.16008611037E+04  0.14999916256E+04 0.  0.
        6    2    5    5  502    0 -0.58981606454E+03  0.82812372070E+03 -0.21148866115E+03  0.10523451195E+04  0.17038459438E+03 0.  0.
       25    1    5    5    0    0  0.37348811417E+03 -0.31244810480E+03  0.21938002488E+03  0.54851598421E+03  0.12500000000E+03 0.  0.
       24    1    6    6    0    0 -0.53001960435E+03  0.64935033930E+03 -0.18283608708E+03  0.86161337453E+03  0.79824358925E+02 0.  0.
        5    1    6    6  502    0 -0.59796460188E+02  0.17877338140E+03 -0.28652574062E+02  0.19073174499E+03  0.46999998093E+01 0. -1.
      -24    1    4    4    0    0  0.18799630620E+03 -0.46046217769E+03  0.68399342390E+03  0.84946274812E+03  0.79824358925E+02 0.  0.
       -5    1    4    4    0  502  0.28331644169E+02 -0.55213438205E+02  0.20996091709E+03  0.21899059916E+03  0.46999998093E+01 0.  1.
</event>
<event>
11   0  0.2741000E-04  0.2500233E+04  0.7818609E-02  0.8057483E-01
       -2   -1    0    0    0  501  0.00000000000E+00  0.00000000000E+00  0.85536731938E+03  0.85536731938E+03  0.00000000000E+00 0.  1.
        2   -1    0    0  501    0  0.00000000000E+00  0.00000000000E+00 -0.18270411989E+04  0.18270411989E+04  0.00000000000E+00 0. -1.
  9900113    2    1    2    0    0  0.00000000000E+00  0.56843418861E-13 -0.97167387957E+03  0.26824085183E+04  0.25002330553E+04 0.  0.
       -6    2    3    3    0  502 -0.55822188591E+03  0.37634454575E+03  0.12508911185E+03  0.70601295100E+03  0.17193053844E+03 0.  0.
  8000001    2    3    3  502    0  0.55822188591E+03 -0.37634454575E+03 -0.10967629914E+04  0.19763955673E+04  0.15000011627E+04 0.  0.
        6    2    5    5  502    0 -0.36317400472E+03 -0.48918464622E+03 -0.74071605278E+03  0.97434881291E+03  0.17175087354E+03 0.  0.
       25    1    5    5    0    0  0.92139589063E+03  0.11284010047E+03 -0.35604693864E+03  0.10020467544E+04  0.12500000000E+03 0.  0.
       24    1    6    6    0    0 -0.28219112788E+03 -0.38488868551E+03 -0.66385608052E+03  0.82149130051E+03  0.79824358925E+02 0.  0.
        5    1    6    6  502    0 -0.80982876843E+02 -0.10429596071E+03 -0.76859972258E+02  0.15285751240E+03  0.46999998093E+01 0. -1.
      -24    1    4    4    0    0 -0.35319547153E+03  0.26081652453E+03  0.15900761035E+02  0.44653898268E+03  0.79824358925E+02 0.  1.
       -5    1    4    4    0  502 -0.20502641438E+03  0.11552802122E+03  0.10918835082E+03  0.25947396831E+03  0.46999998093E+01 0.  1.
</event>
<event>
11   0  0.2741000E-04  0.2520656E+04  0.7818609E-02  0.8050486E-01
       -1   -1    0    0    0  501  0.00000000000E+00  0.00000000000E+00  0.96046984956E+03  0.96046984956E+03  0.00000000000E+00 0.  1.
        1   -1    0    0  501    0  0.00000000000E+00  0.00000000000E+00 -0.16538018183E+04  0.16538018183E+04  0.00000000000E+00 0. -1.
  9900113    2    1    2    0    0  0.28421709430E-13  0.00000000000E+00 -0.69333196874E+03  0.26142716679E+04  0.25206560921E+04 0.  0.
        6    2    3    3  502    0  0.22346899972E+02  0.48786672906E+03  0.43376934333E+03  0.67548924693E+03  0.17209459678E+03 0.  0.
 -8000001    2    3    3    0  502 -0.22346899972E+02 -0.48786672906E+03 -0.11271013121E+04  0.19387824209E+04  0.15000021929E+04 0.  0.
       -6    2    5    5    0  502  0.58395886546E+03 -0.69239726387E+03 -0.71652096939E+03  0.11683016368E+04  0.17636464353E+03 0.  0.
       25    1    5    5    0    0 -0.60630576543E+03  0.20453053481E+03 -0.41058034268E+03  0.77048078410E+03  0.12500000000E+03 0.  0.
      -24    1    6    6    0    0  0.21157954418E+03 -0.22876475765E+03 -0.18723194852E+03  0.37219208574E+03  0.79824358925E+02 0.  0.
       -5    1    6    6    0  502  0.37237932127E+03 -0.46363250622E+03 -0.52928902087E+03  0.79610955110E+03  0.46999998093E+01 0.  1.
       24    1    4    4    0    0  0.79876003131E+02  0.35938890686E+03  0.32499919525E+03  0.49753087084E+03  0.79824358925E+02 0.  0.
        5    1    4    4  502    0 -0.57529103159E+02  0.12847782220E+03  0.10877014808E+03  0.17795837608E+03  0.46999998093E+01 0. -1.
</event>
<event>
11   0  0.2741000E-04  0.2493520E+04  0.7818609E-02  0.8059798E-01
        1   -1    0    0  501    0  0.00000000000E+00  0.00000000000E+00  0.10335568862E+04  0.10335568862E+04  0.00000000000E+00 0. -1.
       -1   -1    0    0    0  501  0.00000000000E+00  0.00000000000E+00 -0.15039424872E+04  0.15039424872E+04  0.00000000000E+00 0.  1.
  9900113    2    1    2    0    0  0.56843418861E-13  0.00000000000E+00 -0.47038560106E+03  0.25374993734E+04  0.24935196924E+04 0.  0.
        6    2    3    3  502    0 -0.49213387561E+03  0.44930494903E+03 -0.56850396067E+03  0.89321005988E+03  0.17480494564E+03 0.  0.
 -8000001    2    3    3    0  502  0.49213387561E+03 -0.44930494903E+03  0.98118359613E+02  0.16442893135E+04  0.14999964817E+04 0.  0.
       -6    2    5    5    0  502 -0.72433170616E+02 -0.78772686450E+03  0.40751335324E+03  0.90630855180E+03  0.17195313532E+03 0.  0.
       25    1    5    5    0    0  0.56456704622E+03  0.33842191546E+03 -0.30939499363E+03  0.73798076169E+03  0.12500000000E+03 0.  0.
      -24    1    6    6    0    0 -0.68999427481E+02 -0.33184630496E+03  0.12509210913E+03  0.37000385829E+03  0.79824358925E+02 0.  0.
       -5    1    6    6    0  502 -0.34337431345E+01 -0.45588055954E+03  0.28242124412E+03  0.53630469351E+03  0.46999998093E+01 0.  1.
       24    1    4    4    0    0 -0.28133521155E+03  0.33032081011E+03 -0.42037354796E+03  0.60938262770E+03  0.79824358925E+02 0. -1.
        5    1    4    4  502    0 -0.21079866406E+03  0.11898413892E+03 -0.14813041272E+03  0.28382743218E+03  0.46999998093E+01 0. -1.
</event>
<event>
11   0  0.2741000E-04  0.2504774E+04  0.7818609E-02  0.8055921E-01
       -1   -1    0    0    0  501  0.00000000000E+00  0.00000000000E+00  0.65128045515E+03  0.65128045515E+03  0.00000000000E+00 0.  1.
        1   -1    0    0  501    0  0.00000000000E+00  0.00000000000E+00 -0.24082911426E+04  0.24082911426E+04  0.00000000000E+00 0. -1.
  9900113    2    1    2    0    0  0.00000000000E+00  0.11368683772E-12 -0.17570106874E+04  0.30595715977E+04  0.25047738034E+04 0.  0.
        6    2    3    3  502    0 -0.72158380877E+03  0.28365456990E+03 -0.37784120364E+03  0.87937630370E+03  0.17145145155E+03 0.  0.
 -8000001    2    3    3    0  502  0.72158380877E+03 -0.28365456990E+03 -0.13791694838E+04  0.21801952940E+04  0.14999999823E+04 0.  0.
       -6    2    5    5    0  502  0.57872146967E+02 -0.81143086342E+03 -0.68706290221E+03  0.10785158914E+04  0.17138221854E+03 0.  0.
       25    1    5    5    0    0  0.66371166180E+03  0.52777629352E+03 -0.69210658159E+03  0.11016794027E+04  0.12500000000E+03 0.  0.
      -24    1    6    6    0    0 -0.20539172901E+02 -0.55103664488E+03 -0.49786784162E+03  0.74719981104E+03  0.79824358925E+02 0. -1.
       -5    1    6    6    0  502  0.78411319868E+02 -0.26039421854E+03 -0.18919506060E+03  0.33131608033E+03  0.46999998093E+01 0.  1.
       24    1    4    4    0    0 -0.23348217196E+03  0.11495866619E+03 -0.82516011693E+02  0.28444725349E+03  0.79824358925E+02 0. -1.
        5    1    4    4  502    0 -0.48810163681E+03  0.16869590370E+03 -0.29532519194E+03  0.59492905021E+03  0.46999998093E+01 0. -1.
</event>
<event>
11   0  0.2741000E-04  0.2478198E+04  0.7818609E-02  0.8065109E-01
        1   -1    0    0  501    0  0.00000000000E+00  0.00000000000E+00  0.12044218862E+04  0.12044218862E+04  0.00000000000E+00 0. -1.
       -1   -1    0    0    0  501  0.00000000000E+00  0.00000000000E+00 -0.12747748668E+04  0.12747748668E+04  0.00000000000E+00 0.  1.
  9900113    2    1    2    0    0  0.00000000000E+00 -0.28421709430E-13 -0.70352980603E+02  0.24791967531E+04  0.24781983372E+04 0.  0.
        6    2    3    3  502    0  0.75146647158E+03  0.15014963325E+03 -0.11512043498E+03  0.79418956565E+03  0.17388956658E+03 0.  0.
 -8000001    2    3    3    0  502 -0.75146647158E+03 -0.15014963325E+03  0.44767454377E+02  0.16850071874E+04  0.14999994421E+04 0.  0.
       -6    2    5    5    0  502 -0.79854721900E+03 -0.31461419757E+03  0.61966133512E+03  0.10723138189E+04  0.17092981514E+03 0.  0.
       25    1    5    5    0    0  0.47080747421E+02  0.16446456432E+03 -0.57489388074E+03  0.61269336851E+03  0.12500000000E+03 0.  0.
      -24    1    6    6    0    0 -0.33075603840E+03 -0.18939512593E+03  0.24565060246E+03  0.46041961017E+03  0.79824358925E+02 0. -1.
       -5    1    6    6    0  502 -0.46779118060E+03 -0.12521907165E+03  0.37401073267E+03  0.61189420875E+03  0.46999998093E+01 0.  1.
       24    1    4    4    0    0  0.37786201555E+03  0.54864217417E+02  0.56697547727E+01  0.39012031419E+03  0.79824358925E+02 0.  0.
        5    1    4    4  502    0  0.37360445603E+03  0.95285415838E+02 -0.12079018975E+03  0.40406925146E+03  0.46999998093E+01 0. -1.
</event>
<event>
11   0  0.2741000E-04  0.2688871E+04  0.7818609E-02  0.7995343E-01
       -2   -1    0    0    0  501  0.00000000000E+00  0.00000000000E+00  0.10529173838E+04  0.10529173838E+04  0.00000000000E+00 0.  1.
        2   -1    0    0  501    0  0.00000000000E+00  0.00000000000E+00 -0.17166656446E+04  0.17166656446E+04  0.00000000000E+00 0. -1.
  9900113    2    1    2    0    0  0.00000000000E+00 -0.11368683772E-12 -0.66374826082E+03  0.27695830285E+04  0.26888712126E+04 0.  0.
        6    2    3    3  502    0  0.28635835078E+03  0.65792619677E+03  0.35583489226E+03  0.81909414936E+03  0.17154815509E+03 0.  0.
 -8000001    2    3    3    0  502 -0.28635835078E+03 -0.65792619677E+03 -0.10195831531E+04  0.19504888791E+04  0.14999963587E+04 0.  0.
       -6    2    5    5    0  502 -0.79837903337E+03 -0.42350919385E+03 -0.18911317119E+03  0.93934007627E+03  0.17270457192E+03 0.  0.
       25    1    5    5    0    0  0.51202068259E+03 -0.23441700292E+03 -0.83046998189E+03  0.10111488028E+04  0.12500000000E+03 0.  0.
      -24    1    6    6    0    0 -0.36890406155E+03 -0.13695069753E+03 -0.50095321139E+02  0.40463214116E+03  0.79824358925E+02 0. -1.
       -5    1    6    6    0  502 -0.42947497182E+03 -0.28655849633E+03 -0.13901785005E+03  0.53470793511E+03  0.46999998093E+01 0.  1.
       24    1    4    4    0    0  0.14172852865E+03  0.21318765191E+03  0.15835172048E+03  0.31142117208E+03  0.79824358925E+02 0.  0.
        5    1    4    4  502    0  0.14462982213E+03  0.44473854486E+03  0.19748317178E+03  0.50767297729E+03  0.46999998093E+01 0. -1.
</event>
<event>
11   0  0.2741000E-04  0.2507118E+04  0.7818609E-02  0.8055117E-01
       -2   -1    0    0    0  501  0.00000000000E+00  0.00000000000E+00  0.11987288579E+04  0.11987288579E+04  0.00000000000E+00 0.  1.
        2   -1    0    0  501    0  0.00000000000E+00  0.00000000000E+00 -0.13108972625E+04  0.13108972625E+04  0.00000000000E+00 0. -1.
  9900113    2    1    2    0    0  0.00000000000E+00  0.00000000000E+00 -0.11216840461E+03  0.25096261204E+04  0.25071181690E+04 0.  0.
        6    2    3    3  502    0 -0.29663082924E+03  0.13799333510E+03 -0.75853411018E+03  0.84384737812E+03  0.17225676146E+03 0.  0.
 -8000001    2    3    3    0  502  0.29663082924E+03 -0.13799333510E+03  0.64636570556E+03  0.16657787423E+04  0.14999993945E+04 0.  0.
       -6    2    5    5    0  502  0.32110973708E+02 -0.46922343978E+03 -0.32608522330E+03  0.59761679516E+03  0.17208285775E+03 0.  0.
       25    1    5    5    0    0  0.26451985553E+03  0.33123010467E+03  0.97245092887E+03  0.10681619471E+04  0.12500000000E+03 0.  0.
      -24    1    6    6    0    0  0.20901852469E+02 -0.47482104677E+03 -0.29832458999E+03  0.56679926178E+03  0.79824358925E+02 0.  0.
       -5    1    6    6    0  502  0.11209121239E+02  0.55976069916E+01 -0.27760633319E+02  0.30817533377E+02  0.46999998093E+01 0.  1.
       24    1    4    4    0    0 -0.52686679880E+02  0.42402573450E+02 -0.17005428801E+03  0.19966034563E+03  0.79824358925E+02 0.  0.
        5    1    4    4  502    0 -0.24394414936E+03  0.95590761654E+02 -0.58847982217E+03  0.64418703248E+03  0.46999998093E+01 0. -1.
</event>
<event>
11   0  0.2741000E-04  0.2483463E+04  0.7818609E-02  0.8063280E-01
       -1   -1    0    0    0  501  0.00000000000E+00  0.00000000000E+00  0.21727478564E+04  0.21727478564E+04  0.00000000000E+00 0.  1.
        1   -1    0    0  501    0  0.00000000000E+00  0.00000000000E+00 -0.70965292886E+03  0.70965292886E+03  0.00000000000E+00 0. -1.
  9900113    2    1    2    0    0  0.11368683772E-12  0.00000000000E+00  0.14630949276E+04  0.28824007853E+04  0.24834628083E+04 0.  0.
       -6    2    3    3    0  502 -0.68525839771E+03 -0.69710915952E+02  0.88262618619E+03  0.11327188627E+04  0.17200102855E+03 0.  0.
  8000001    2    3    3  502    0  0.68525839771E+03  0.69710915952E+02  0.58046874140E+03  0.17496819227E+04  0.15000013958E+04 0.  0.
        6    2    5    5  502    0 -0.35705199513E+03  0.11663268048E+02 -0.19621598053E+03  0.44253057651E+03  0.17236716938E+03 0.  0.
       25    1    5    5    0    0  0.10423103928E+04  0.58047647904E+02  0.77668472193E+03  0.13071513461E+04  0.12500000000E+03 0.  0.
       24    1    6    6    0    0 -0.28394555779E+03  0.69476809468E+02 -0.14257637578E+03  0.33489111372E+03  0.79824358925E+02 0.  0.
        5    1    6    6  502    0 -0.73106437341E+02 -0.57813541420E+02 -0.53639604751E+02  0.10763946278E+03  0.46999998093E+01 0. -1.
      -24    1    4    4    0    0 -0.33037830130E+03 -0.97438757432E+02  0.45826604967E+03  0.57881243419E+03  0.79824358925E+02 0.  1.
       -5    1    4    4    0  502 -0.35488009641E+03  0.27727841480E+02  0.42436013652E+03  0.55390642846E+03  0.46999998093E+01 0.  1.
</event>
<event>
11   0  0.2741000E-04  0.2534700E+04  0.7818609E-02  0.8045715E-01
        2   -1    0    0  501    0  0.00000000000E+00  0.00000000000E+00  0.25464700020E+04  0.25464700020E+04  0.00000000000E+00 0. -1.
       -2   -1    0    0    0  501  0.00000000000E+00  0.00000000000E+00 -0.63074629472E+03  0.63074629472E+03  0.00000000000E+00 0.  1.
  9900113    2    1    2    0    0 -0.17053025658E-12  0.00000000000E+00  0.19157237073E+04  0.31772162967E+04  0.25347003913E+04 0.  0.
       -6    2    3    3    0  502  0.25171070402E+03 -0.14389432776E+03  0.15766116298E+04  0.16122604772E+04  0.17209229806E+03 0.  0.
  8000001    2    3    3  502    0 -0.25171070402E+03  0.14389432776E+03  0.33911207747E+03  0.15649558195E+04  0.15000086199E+04 0.  0.
        6    2    5    5  502    0 -0.64106649792E+03 -0.13031957665E+03 -0.31516523118E+03  0.74611823107E+03  0.17150465003E+03 0.  0.
       25    1    5    5    0    0  0.38935579390E+03  0.27421390441E+03  0.65427730865E+03  0.81883758843E+03  0.12500000000E+03 0.  0.
       24    1    6    6    0    0 -0.55034636239E+03 -0.70288028062E+02 -0.22226955161E+03  0.60299022159E+03  0.79824358925E+02 0.  0.
        5    1    6    6  502    0 -0.90720135525E+02 -0.60031548586E+02 -0.92895679575E+02  0.14312800948E+03  0.46999998093E+01 0. -1.
      -24    1    4    4    0    0  0.26729550171E+03 -0.13199725141E+03  0.13534126895E+04  0.13881527279E+04  0.79824358925E+02 0.  0.
       -5    1    4    4    0  502 -0.15584797697E+02 -0.11897076347E+02  0.22319894035E+03  0.22410774934E+03  0.46999998093E+01 0.  1.
</event>
<event>
11   0  0.2741000E-04  0.2464947E+04  0.7818609E-02  0.8069735E-01
       -1   -1    0    0    0  501  0.00000000000E+00  0.00000000000E+00  0.11027557801E+04  0.11027557801E+04  0.00000000000E+00 0.  1.
        1   -1    0    0  501    0  0.00000000000E+00  0.00000000000E+00 -0.13774503430E+04  0.13774503430E+04  0.00000000000E+00 0. -1.
  9900113    2    1    2    0    0  0.00000000000E+00  0.11368683772E-12 -0.27469456292E+03  0.24802061230E+04  0.24649473239E+04 0.  0.
        6    2    3    3  502    0  0.66857044650E+03  0.29686239113E+03  0.13141544958E+03  0.76263844846E+03  0.17097854100E+03 0.  0.
 -8000001    2    3    3    0  502 -0.66857044650E+03 -0.29686239113E+03 -0.40611001250E+03  0.17175676746E+04  0.14999998844E+04 0.  0.
       -6    2    5    5    0  502 -0.40998954601E+03  0.56620524410E+03 -0.36561605320E+03  0.80706529356E+03  0.17029234698E+03 0.  0.
       25    1    5    5    0    0 -0.25858090049E+03 -0.86306763523E+03 -0.40493959302E+02  0.91050238101E+03  0.12500000000E+03 0.  0.
      -24    1    6    6    0    0 -0.18850309258E+03  0.18298275458E+03 -0.17146274892E+03  0.32370898494E+03  0.79824358925E+02 0. -1.
       -5    1    6    6    0  502 -0.22148645342E+03  0.38322248952E+03 -0.19415330428E+03  0.48335630862E+03  0.46999998093E+01 0.  1.
       24    1    4    4    0    0  0.20682473143E+03  0.98520184960E+02  0.88527814972E+02  0.25824755309E+03  0.79824358925E+02 0. -1.
        5    1    4    4  502    0  0.46174571507E+03  0.19834220617E+03  0.42887634612E+02  0.50439089537E+03  0.46999998093E+01 0. -1.
</event>
<event>
11   0  0.2741000E-04  0.2542665E+04  0.7818609E-02  0.8043023E-01
        2   -1    0    0  501    0  0.00000000000E+00  0.00000000000E+00  0.12690248284E+04  0.12690248284E+04  0.00000000000E+00 0. -1.
       -2   -1    0    0    0  501  0.00000000000E+00  0.00000000000E+00 -0.12736441210E+04  0.12736441210E+04  0.00000000000E+00 0.  1.
  9900113    2    1    2    0    0  0.00000000000E+00  0.00000000000E+00 -0.46192925608E+01  0.25426689494E+04  0.25426647535E+04 0.  0.
       -6    2    3    3    0  502 -0.30048462671E+03  0.72632106085E+03  0.22015443378E+03  0.83434728110E+03  0.17272555238E+03 0.  0.
  8000001    2    3    3  502    0  0.30048462671E+03 -0.72632106085E+03 -0.22477372634E+03  0.17083216683E+04  0.15000021334E+04 0.  0.
        6    2    5    5  502    0 -0.50707934108E+03  0.45904973190E+02 -0.22743361639E+03  0.58398867286E+03  0.17343585400E+03 0.  0.
       25    1    5    5    0    0  0.80756396779E+03 -0.77222603404E+03  0.26598900496E+01  0.11243329955E+04  0.12500000000E+03 0.  0.
       24    1    6    6    0    0 -0.41370166103E+03  0.76970128006E+02 -0.13547884943E+03  0.44922145081E+03  0.79824358925E+02 0.  0.
        5    1    6    6  502    0 -0.93377680049E+02 -0.31065154816E+02 -0.91954766961E+02  0.13476722205E+03  0.46999998093E+01 0. -1.
      -24    1    4    4    0    0 -0.11746075977E+03  0.20774763737E+03  0.10386670112E+03  0.27224314647E+03  0.79824358925E+02 0. -1.
       -5    1    4    4    0  502 -0.18302386694E+03  0.51857342347E+03  0.11628773265E+03  0.56210413463E+03  0.46999998093E+01 0.  1.
</event>
<event>
11   0  0.2741000E-04  0.2502358E+04  0.7818609E-02  0.8056752E-01
        3   -1    0    0  501    0  0.00000000000E+00  0.00000000000E+00  0.16472294530E+04  0.16472294530E+04  0.00000000000E+00 0. -1.
       -3   -1    0    0    0  501  0.00000000000E+00  0.00000000000E+00 -0.95035293006E+03  0.95035293006E+03  0.00000000000E+00 0.  1.
  9900113    2    1    2    0    0  0.56843418861E-13 -0.56843418861E-13  0.69687652295E+03  0.25975823831E+04  0.25023583573E+04 0.  0.
        6    2    3    3  502    0  0.26941795017E+03  0.26861629065E+03 -0.49261595099E+03  0.64575307304E+03  0.17200526940E+03 0.  0.
 -8000001    2    3    3    0  502 -0.26941795017E+03 -0.26861629065E+03  0.11894924739E+04  0.19518293100E+04  0.15000015222E+04 0.  0.
       -6    2    5    5    0  502 -0.13013544385E+03 -0.49857092720E+03  0.14555141281E+04  0.15534936828E+04  0.17121051952E+03 0.  0.
       25    1    5    5    0    0 -0.13928250632E+03  0.22995463655E+03 -0.26602165420E+03  0.39833562726E+03  0.12500000000E+03 0.  0.
      -24    1    6    6    0    0 -0.15284619150E+03 -0.33387649198E+03  0.96727127154E+03  0.10376999138E+04  0.79824358925E+02 0.  0.
       -5    1    6    6    0  502  0.22710747646E+02 -0.16469443523E+03  0.48824285659E+03  0.51579376893E+03  0.46999998093E+01 0.  1.
       24    1    4    4    0    0  0.15246690580E+03  0.23844157094E+03 -0.31517129231E+03  0.43105151883E+03  0.79824358925E+02 0.  0.
        5    1    4    4  502    0  0.11695104436E+03  0.30174719711E+02 -0.17744465868E+03  0.21470155421E+03  0.46999998093E+01 0. -1.
</event>
<event>
11   0  0.2741000E-04  0.2508414E+04  0.7818609E-02  0.8054672E-01
        2   -1    0    0  501    0  0.00000000000E+00  0.00000000000E+00  0.21645809004E+04  0.21645809004E+04  0.00000000000E+00 0. -1.
       -2   -1    0    0    0  501  0.00000000000E+00  0.00000000000E+00 -0.72671567499E+03  0.72671567499E+03  0.00000000000E+00 0.  1.
  9900113    2    1    2    0    0  0.00000000000E+00 -0.11368683772E-12  0.14378652254E+04  0.28912965754E+04  0.25084137379E+04 0.  0.
       -6    2    3    3    0  502 -0.31643790286E+03  0.69673386540E+03  0.70706906274E+03  0.10556415820E+04  0.16988662304E+03 0.  0.
  8000001    2    3    3  502    0  0.31643790286E+03 -0.69673386540E+03  0.73079616266E+03  0.18356549933E+04  0.14999983992E+04 0.  0.
        6    2    5    5  502    0  0.43629218792E+03 -0.78078893384E+03 -0.16056234014E+03  0.92374749546E+03  0.16597270211E+03 0.  0.
       25    1    5    5    0    0 -0.11985428507E+03  0.84055068441E+02  0.89135850280E+03  0.91190749789E+03  0.12500000000E+03 0.  0.
       24    1    6    6    0    0  0.21501836275E+03 -0.47541621310E+03 -0.13972377669E+03  0.54602942599E+03  0.79824358925E+02 0.  1.
        5    1    6    6  502    0  0.22127382517E+03 -0.30537272075E+03 -0.20838563456E+02  0.37771806947E+03  0.46999998093E+01 0. -1.
      -24    1    4    4    0    0 -0.18377478842E+03  0.46071974535E+03  0.37365579779E+03  0.62612014830E+03  0.79824358925E+02 0.  1.
       -5    1    4    4    0  502 -0.13266311443E+03  0.23601412005E+03  0.33341326495E+03  0.42952143373E+03  0.46999998093E+01 0.  1.
</event>
<event>
11   0  0.2741000E-04  0.2509158E+04  0.7818609E-02  0.8054417E-01
        2   -1    0    0  501    0  0.00000000000E+00  0.00000000000E+00  0.20468169893E+04  0.20468169893E+04  0.00000000000E+00 0. -1.
       -2   -1    0    0    0  501  0.00000000000E+00  0.00000000000E+00 -0.76898374115E+03  0.76898374115E+03  0.00000000000E+00 0.  1.
  9900113    2    1    2    0    0  0.00000000000E+00  0.00000000000E+00  0.12778332482E+04  0.28158007305E+04  0.25091584134E+04 0.  0.
        6    2    3    3  502    0  0.70924910121E+03 -0.34326550024E+03  0.31094991193E+03  0.86497252631E+03  0.17499180647E+03 0.  0.
 -8000001    2    3    3    0  502 -0.70924910121E+03  0.34326550024E+03  0.96688333626E+03  0.19508282042E+04  0.15000006017E+04 0.  0.
       -6    2    5    5    0  502 -0.41213680525E+03 -0.34557358876E+03 -0.16390144828E+03  0.58808309378E+03  0.17233742760E+03 0.  0.
       25    1    5    5    0    0 -0.29711229596E+03  0.68883908900E+03  0.11307847845E+04  0.13627451104E+04  0.12500000000E+03 0.  0.
      -24    1    6    6    0    0 -0.77641588847E+02 -0.94314938940E+02 -0.53000520319E+02  0.15525626383E+03  0.79824358925E+02 0. -1.
       -5    1    6    6    0  502 -0.33449521640E+03 -0.25125864982E+03 -0.11090092796E+03  0.43282682995E+03  0.46999998093E+01 0.  1.
       24    1    4    4    0    0  0.28519408255E+03 -0.18912062109E+03  0.18176839166E+03  0.39561844058E+03  0.79824358925E+02 0. -1.
        5    1    4    4  502    0  0.42405501866E+03 -0.15414487915E+03  0.12918152027E+03  0.46935408573E+03  0.46999998093E+01 0. -1.
</event>
<event>
11   0  0.2741000E-04  0.2469300E+04  0.7818609E-02  0.8068213E-01
       -2   -1    0    0    0  501  0.00000000000E+00  0.00000000000E+00  0.77764111587E+03  0.77764111587E+03  0.00000000000E+00 0.  1.
        2   -1    0    0  501    0  0.00000000000E+00  0.00000000000E+00 -0.19602366296E+04  0.19602366296E+04  0.00000000000E+00 0. -1.
  9900113    2    1    2    0    0 -0.11368683772E-12  0.00000000000E+00 -0.11825955137E+04  0.27378777455E+04  0.24692999818E+04 0.  0.
        6    2    3    3  502    0 -0.63141175999E+03 -0.17436802212E+03  0.64515808952E+02  0.68012091340E+03  0.17122251444E+03 0.  0.
 -8000001    2    3    3    0  502  0.63141175999E+03  0.17436802212E+03 -0.12471113227E+04  0.20577568321E+04  0.14999971703E+04 0.  0.
       -6    2    5    5    0  502  0.12581688686E+03 -0.28954264697E+03 -0.13093652424E+04  0.13575141348E+04  0.16953599817E+03 0.  0.
       25    1    5    5    0    0  0.50559487313E+03  0.46391066908E+03  0.62253919693E+02  0.70024269731E+03  0.12500000000E+03 0.  0.
      -24    1    6    6    0    0  0.57305272408E+02 -0.12888432876E+03 -0.40128012770E+03  0.43277330510E+03  0.79824358925E+02 0.  0.
       -5    1    6    6    0  502  0.68511614449E+02 -0.16065831821E+03 -0.90808511468E+03  0.92474082965E+03  0.46999998093E+01 0.  1.
       24    1    4    4    0    0 -0.37281760657E+03 -0.17223778979E+03  0.36202538188E+02  0.41993020379E+03  0.79824358925E+02 0.  1.
        5    1    4    4  502    0 -0.25859415341E+03 -0.21302323278E+01  0.28313270765E+02  0.26019070961E+03  0.46999998093E+01 0. -1.
</event>
<event>
11   0  0.2741000E-04  0.2512109E+04  0.7818609E-02  0.8053406E-01
        2   -1    0    0  501    0  0.00000000000E+00  0.00000000000E+00  0.83396455473E+03  0.83396455473E+03  0.00000000000E+00 0. -1.
       -2   -1    0    0    0  501  0.00000000000E+00  0.00000000000E+00 -0.18917752316E+04  0.18917752316E+04  0.00000000000E+00 0.  1.
  9900113    2    1    2    0    0  0.19895196601E-12  0.00000000000E+00 -0.10578106769E+04  0.27257397863E+04  0.25121094631E+04 0.  0.
       -6    2    3    3    0  502 -0.23973243179E+03  0.45332262791E+03 -0.10019954725E+04  0.11395208494E+04  0.17759446910E+03 0.  0.
  8000001    2    3    3  502    0  0.23973243179E+03 -0.45332262791E+03 -0.55815204348E+02  0.15862189369E+04  0.15000007116E+04 0.  0.
        6    2    5    5  502    0  0.63316648119E+03  0.16572746616E+03 -0.37852335215E+03  0.77518322940E+03  0.17106643471E+03 0.  0.
       25    1    5    5    0    0 -0.39343404940E+03 -0.61905009407E+03  0.32270814780E+03  0.81103570751E+03  0.12500000000E+03 0.  0.
       24    1    6    6    0    0  0.61506671602E+03  0.15739187147E+03 -0.32460644847E+03  0.71750995884E+03  0.79824358925E+02 0.  0.
        5    1    6    6  502    0  0.18099765169E+02  0.83355946862E+01 -0.53916903671E+02  0.57673270565E+02  0.46999998093E+01 0. -1.
      -24    1    4    4    0    0 -0.12683000898E+03  0.26494699728E+03 -0.43033982705E+03  0.52711199718E+03  0.79824358925E+02 0.  0.
       -5    1    4    4    0  502 -0.11290242280E+03  0.18837563063E+03 -0.57165564546E+03  0.61240885222E+03  0.46999998093E+01 0.  1.
</event>
<event>
11   0  0.2741000E-04  0.2532320E+04  0.7818609E-02  0.8046521E-01
        1   -1    0    0  501    0  0.00000000000E+00  0.00000000000E+00  0.16623504864E+04  0.16623504864E+04  0.00000000000E+00 0. -1.
       -1   -1    0    0    0  501  0.00000000000E+00  0.00000000000E+00 -0.96439396422E+03  0.96439396422E+03  0.00000000000E+00 0.  1.
  9900113    2    1    2    0    0  0.00000000000E+00 -0.11368683772E-12  0.69795652215E+03  0.26267444506E+04  0.25323197077E+04 0.  0.
       -6    2    3    3    0  502 -0.13222441704E+03  0.36863187374E+03 -0.50687664649E+03  0.66333002809E+03  0.17236599608E+03 0.  0.
  8000001    2    3    3  502    0  0.13222441704E+03 -0.36863187374E+03  0.12048331686E+04  0.19634144225E+04  0.15000001585E+04 0.  0.
        6    2    5    5  502    0  0.21813034386E+03  0.52376967073E+03  0.73117296700E+03  0.94177880671E+03  0.17440727685E+03 0.  0.
       25    1    5    5    0    0 -0.85905926813E+02 -0.89240154447E+03  0.47366020164E+03  0.10216356158E+04  0.12500000000E+03 0.  0.
       24    1    6    6    0    0  0.14174757243E+03  0.38098134799E+03  0.61862122375E+03  0.74451548577E+03  0.79824358925E+02 0.  0.
        5    1    6    6  502    0  0.76382771427E+02  0.14278832274E+03  0.11255174325E+03  0.19726332094E+03  0.46999998093E+01 0. -1.
      -24    1    4    4    0    0 -0.10346173275E+03  0.16293438614E+03 -0.32968765155E+03  0.39027915675E+03  0.79824358925E+02 0. -1.
       -5    1    4    4    0  502 -0.28762684294E+02  0.20569748760E+03 -0.17718899494E+03  0.27305087134E+03  0.46999998093E+01 0.  1.
</event>
<event>
11   0  0.2741000E-04  0.2743389E+04  0.7818609E-02  0.7978356E-01
        2   -1    0    0  501    0  0.00000000000E+00  0.00000000000E+00  0.24684806306E+04  0.24684806306E+04  0.00000000000E+00 0. -1.
       -2   -1    0    0    0  501  0.00000000000E+00  0.00000000000E+00 -0.76222834942E+03  0.76222834942E+03  0.00000000000E+00 0.  1.
  9900113    2    1    2    0    0 -0.11368683772E-12  0.00000000000E+00  0.17062522812E+04  0.32307089800E+04  0.27433890841E+04 0.  0.
       -6    2    3    3    0  502  0.32049915135E+03 -0.24053836947E+03  0.16182821185E+04  0.16756029988E+04  0.16801780069E+03 0.  0.
  8000001    2    3    3  502    0 -0.32049915135E+03  0.24053836947E+03  0.87970162749E+02  0.15551059813E+04  0.15000124834E+04 0.  0.
        6    2    5    5  502    0  0.44113904105E+03  0.73572107364E+01  0.46588644660E+03  0.66464997086E+03  0.17335403239E+03 0.  0.
       25    1    5    5    0    0 -0.76163819240E+03  0.23318115874E+03 -0.37791628385E+03  0.89045601043E+03  0.12500000000E+03 0.  0.
       24    1    6    6    0    0  0.12198883611E+03 -0.21204456297E+02  0.19907926837E+03  0.24765982410E+03  0.79824358925E+02 0.  1.
        5    1    6    6  502    0  0.31915020494E+03  0.28561667034E+02  0.26680717824E+03  0.41699014676E+03  0.46999998093E+01 0. -1.
      -24    1    4    4    0    0  0.28795023463E+03 -0.23697808046E+03  0.15782403773E+04  0.16236651641E+04  0.79824358925E+02 0.  0.
       -5    1    4    4    0  502  0.32548916719E+02 -0.35602890175E+01  0.40041741115E+02  0.51937834642E+02  0.46999998093E+01 0.  1.
</event>
<event>
11   0  0.2741000E-04  0.2459830E+04  0.7818609E-02  0.8071530E-01
       -1   -1    0    0    0  501  0.00000000000E+00  0.00000000000E+00  0.69696989049E+03  0.69696989049E+03  0.00000000000E+00 0.  1.
        1   -1    0    0  501    0  0.00000000000E+00  0.00000000000E+00 -0.21703824916E+04  0.21703824916E+04  0.00000000000E+00 0. -1.
  9900113    2    1    2    0    0  0.00000000000E+00 -0.56843418861E-13 -0.14734126011E+04  0.28673523821E+04  0.24598302767E+04 0.  0.
        6    2    3    3  502    0  0.91113776661E+02 -0.22071112174E+03 -0.13067247235E+04  0.13393469487E+04  0.17118886213E+03 0.  0.
 -8000001    2    3    3    0  502 -0.91113776661E+02  0.22071112174E+03 -0.16668787762E+03  0.15280054334E+04  0.15000002121E+04 0.  0.
       -6    2    5    5    0  502  0.36911701805E+03  0.70862686263E+03  0.30647375038E+02  0.81776578610E+03  0.17147074345E+03 0.  0.
       25    1    5    5    0    0 -0.46023079471E+03 -0.48791574089E+03 -0.19733525266E+03  0.71023964727E+03  0.12500000000E+03 0.  0.
      -24    1    6    6    0    0  0.23109922079E+03  0.56002694172E+03  0.54543294574E+02  0.61350136476E+03  0.79824358925E+02 0. -1.
       -5    1    6    6    0  502  0.13801779727E+03  0.14859992091E+03 -0.23895919536E+02  0.20426442134E+03  0.46999998093E+01 0.  1.
       24    1    4    4    0    0  0.81647070271E+02 -0.91369012871E+02 -0.91689170560E+03  0.92848094686E+03  0.79824358925E+02 0. -1.
        5    1    4    4  502    0  0.94667063898E+01 -0.12934210887E+03 -0.38983301790E+03  0.41086600188E+03  0.46999998093E+01 0. -1.
</event>
<event>
11   0  0.2741000E-04  0.2519893E+04  0.7818609E-02  0.8050747E-01
        3   -1    0    0  501    0  0.00000000000E+00  0.00000000000E+00  0.31424520260E+04  0.31424520260E+04  0.00000000000E+00 0. -1.
       -3   -1    0    0    0  501  0.00000000000E+00  0.00000000000E+00 -0.50516779155E+03  0.50516779155E+03  0.00000000000E+00 0.  1.
  9900113    2    1    2    0    0  0.00000000000E+00 -0.56843418861E-13  0.26372842345E+04  0.36476198176E+04  0.25198932914E+04 0.  0.
       -6    2    3    3    0  502 -0.25864681434E+03  0.45831439425E+03 -0.15836884196E+02  0.55472444287E+03  0.17469442483E+03 0.  0.
  8000001    2    3    3  502    0  0.25864681434E+03 -0.45831439425E+03  0.26531211187E+04  0.30928953747E+04  0.14999999567E+04 0.  0.
        6    2    5    5  502    0 -0.17018768644E+02 -0.67795986228E+03  0.39378984879E+03  0.80282148238E+03  0.17185073238E+03 0.  0.
       25    1    5    5    0    0  0.27566558298E+03  0.21964546803E+03  0.22593312699E+04  0.22900738923E+04  0.12500000000E+03 0.  0.
       24    1    6    6    0    0 -0.15834676596E+01 -0.64143220453E+03  0.40315837132E+03  0.76180468692E+03  0.79824358925E+02 0.  1.
        5    1    6    6  502    0 -0.15435300984E+02 -0.36527657751E+02 -0.93685225290E+01  0.41016795461E+02  0.46999998093E+01 0. -1.
      -24    1    4    4    0    0 -0.21988558803E+03  0.31017970002E+03  0.42457135396E+02  0.39081409232E+03  0.79824358925E+02 0.  1.
       -5    1    4    4    0  502 -0.38761226308E+02  0.14813469423E+03 -0.58294019592E+02  0.16391035055E+03  0.46999998093E+01 0.  1.
</event>
<event>
11   0  0.2741000E-04  0.2512474E+04  0.7818609E-02  0.8053281E-01
       -2   -1    0    0    0  501  0.00000000000E+00  0.00000000000E+00  0.94753224125E+03  0.94753224125E+03  0.00000000000E+00 0.  1.
        2   -1    0    0  501    0  0.00000000000E+00  0.00000000000E+00 -0.16655178972E+04  0.16655178972E+04  0.00000000000E+00 0. -1.
  9900113    2    1    2    0    0 -0.56843418861E-13  0.00000000000E+00 -0.71798565591E+03  0.26130501384E+04  0.25124744026E+04 0.  0.
       -6    2    3    3    0  502  0.14040504456E+03 -0.74477191457E+03 -0.48579191926E+03  0.91649300424E+03  0.17195015773E+03 0.  0.
  8000001    2    3    3  502    0 -0.14040504456E+03  0.74477191457E+03 -0.23219373665E+03  0.16965571342E+04  0.14999977990E+04 0.  0.
        6    2    5    5  502    0 -0.39217444332E+03  0.50715775131E+02 -0.69381725281E+03  0.81688502167E+03  0.17188913432E+03 0.  0.
       25    1    5    5    0    0  0.25176939876E+03  0.69405613944E+03  0.46162351616E+03  0.87967211250E+03  0.12500000000E+03 0.  0.
       24    1    6    6    0    0 -0.32710455644E+03  0.80088478772E+02 -0.48256193951E+03  0.59384300031E+03  0.79824358925E+02 0.  0.
        5    1    6    6  502    0 -0.65069886878E+02 -0.29372703641E+02 -0.21125531330E+03  0.22304202136E+03  0.46999998093E+01 0. -1.
      -24    1    4    4    0    0  0.12116244659E+03 -0.38572874127E+03 -0.20515719022E+03  0.46035681952E+03  0.79824358925E+02 0.  1.
       -5    1    4    4    0  502  0.19242597964E+02 -0.35904317330E+03 -0.28063472904E+03  0.45613618472E+03  0.46999998093E+01 0.  1.
</event>
<event>
11   0  0.2741000E-04  0.2669586E+04  0.7818609E-02  0.8001451E-01
       -2   -1    0    0    0  501  0.00000000000E+00  0.00000000000E+00  0.90226089831E+03  0.90226089831E+03  0.00000000000E+00 0.  1.
        2   -1    0    0  501    0  0.00000000000E+00  0.00000000000E+00 -0.19746759669E+04  0.19746759669E+04  0.00000000000E+00 0. -1.
  9900113    2    1    2    0    0 -0.35527136788E-13 -0.11368683772E-12 -0.10724150686E+04  0.28769368652E+04  0.26695864187E+04 0.  0.
       -6    2    3    3    0  502 -0.42757558694E+02 -0.79972892043E+03 -0.81899302120E+03  0.11577456994E+04  0.16802077455E+03 0.  0.
  8000001    2    3    3  502    0  0.42757558694E+02  0.79972892043E+03 -0.25342204736E+03  0.17191911658E+04  0.15000003251E+04 0.  0.
        6    2    5    5  502    0 -0.48576642504E+03  0.97951288909E+03 -0.29625090059E+03  0.11455020623E+04  0.17028170505E+03 0.  0.
       25    1    5    5    0    0  0.52852398374E+03 -0.17978396866E+03  0.42828853232E+02  0.57368910347E+03  0.12500000000E+03 0.  0.
       24    1    6    6    0    0 -0.31414596596E+03  0.76235184508E+03 -0.24598326408E+03  0.86414565792E+03  0.79824358925E+02 0.  0.
        5    1    6    6  502    0 -0.17162045909E+03  0.21716104401E+03 -0.50267636504E+02  0.28135640439E+03  0.46999998093E+01 0. -1.
      -24    1    4    4    0    0  0.27923679861E+02 -0.30918034018E+03 -0.28130564219E+03  0.42647040607E+03  0.79824358925E+02 0. -1.
       -5    1    4    4    0  502 -0.70681238555E+02 -0.49054858026E+03 -0.53768737900E+03  0.73127529331E+03  0.46999998093E+01 0.  1.
</event>
<event>
11   0  0.2741000E-04  0.2488264E+04  0.7818609E-02  0.8061615E-01
       -2   -1    0    0    0  501  0.00000000000E+00  0.00000000000E+00  0.88141540336E+03  0.88141540336E+03  0.00000000000E+00 0.  1.
        2   -1    0    0  501    0  0.00000000000E+00  0.00000000000E+00 -0.17561129865E+04  0.17561129865E+04  0.00000000000E+00 0. -1.
  9900113    2    1    2    0    0  0.11368683772E-12  0.28421709430E-13 -0.87469758313E+03  0.26375283899E+04  0.24882644846E+04 0.  0.
       -6    2    3    3    0  502  0.64514099777E+03 -0.65810079657E+02  0.17711244930E+03  0.69411774519E+03  0.17289520207E+03 0.  0.
  8000001    2    3    3  502    0 -0.64514099777E+03  0.65810079657E+02 -0.10518100324E+04  0.19434106447E+04  0.15000009053E+04 0.  0.
        6    2    5    5  502    0 -0.57392816800E+03 -0.52924845366E+03 -0.10643827227E+04  0.13310798536E+04  0.17136373110E+03 0.  0.
       25    1    5    5    0    0 -0.71212829768E+02  0.59505853332E+03  0.12572690326E+02  0.61233079111E+03  0.12500000000E+03 0.  0.
       24    1    6    6    0    0 -0.29192441270E+03 -0.35705255475E+03 -0.65263066497E+03  0.80312209702E+03  0.79824358925E+02 0.  0.
        5    1    6    6  502    0 -0.28200375530E+03 -0.17219589891E+03 -0.41175205778E+03  0.52795775654E+03  0.46999998093E+01 0. -1.
      -24    1    4    4    0    0  0.62391227587E+03 -0.31163725593E+02  0.15998528778E+03  0.64977298063E+03  0.79824358925E+02 0.  1.
       -5    1    4    4    0  502  0.21228721897E+02 -0.34646354063E+02  0.17127161520E+02  0.44344764552E+02  0.46999998093E+01 0.  1.
</event>
<event>
11   0  0.2741000E-04  0.2497873E+04  0.7818609E-02  0.8058296E-01
        2   -1    0    0  501    0  0.00000000000E+00  0.00000000000E+00  0.17726374219E+04  0.17726374219E+04  0.00000000000E+00 0. -1.
       -2   -1    0    0    0  501  0.00000000000E+00  0.00000000000E+00 -0.87995587800E+03  0.87995587800E+03  0.00000000000E+00 0.  1.
  9900113    2    1    2    0    0  0.11368683772E-12  0.00000000000E+00  0.89268154388E+03  0.26525932999E+04  0.24978732706E+04 0.  0.
       -6    2    3    3    0  502  0.61658691910E+03  0.44464319147E+03  0.50033248407E+03  0.92579684287E+03  0.16994176391E+03 0.  0.
  8000001    2    3    3  502    0 -0.61658691910E+03 -0.44464319147E+03  0.39234905980E+03  0.17267964570E+04  0.15000004076E+04 0.  0.
        6    2    5    5  502    0 -0.10102341583E+04  0.39722025651E+02  0.36756307875E+03  0.10897665069E+04  0.17417671684E+03 0.  0.
       25    1    5    5    0    0  0.39364723922E+03 -0.48436521712E+03  0.24785981055E+02  0.63702995013E+03  0.12500000000E+03 0.  0.
       24    1    6    6    0    0 -0.97002024518E+03  0.22109036047E+02  0.37806542972E+03  0.10443818664E+04  0.79824358925E+02 0.  0.
        5    1    6    6  502    0 -0.40213913140E+02  0.17612989604E+02 -0.10502350971E+02  0.45384640430E+02  0.46999998093E+01 0. -1.
      -24    1    4    4    0    0  0.28221471639E+03  0.13399453042E+03  0.21347335409E+03  0.38670722972E+03  0.79824358925E+02 0. -1.
       -5    1    4    4    0  502  0.33437220271E+03  0.31064866105E+03  0.28685912998E+03  0.53908961315E+03  0.46999998093E+01 0.  1.
</event>
<event>
11   0  0.2741000E-04  0.2501136E+04  0.7818609E-02  0.8057172E-01
       -2   -1    0    0    0  501  0.00000000000E+00  0.00000000000E+00  0.38731753064E+03  0.38731753064E+03  0.00000000000E+00 0.  1.
        2   -1    0    0  501    0  0.00000000000E+00  0.00000000000E+00 -0.40378250467E+04  0.40378250467E+04  0.00000000000E+00 0. -1.
  9900113    2    1    2    0    0  0.22737367544E-12  0.00000000000E+00 -0.36505075161E+04  0.44251425774E+04  0.25011360829E+04 0.  0.
       -6    2    3    3    0  502  0.65235608180E+03 -0.43260478984E+03 -0.10083437462E+04  0.12876679641E+04  0.16916357067E+03 0.  0.
  8000001    2    3    3  502    0 -0.65235608180E+03  0.43260478984E+03 -0.26421637698E+04  0.31374746132E+04  0.15000007334E+04 0.  0.
        6    2    5    5  502    0  0.38580251667E+03  0.48024816118E+03 -0.88113301937E+03  0.10888415396E+04  0.17233288210E+03 0.  0.
       25    1    5    5    0    0 -0.10381585985E+04 -0.47643371331E+02 -0.17610307505E+04  0.20486330737E+04  0.12500000000E+03 0.  0.
       24    1    6    6    0    0  0.91923167850E+02  0.99715205794E+02 -0.25022242890E+03  0.29559462657E+03  0.79824358925E+02 0.  1.
        5    1    6    6  502    0  0.29387934882E+03  0.38053295538E+03 -0.63091059047E+03  0.79324691298E+03  0.46999998093E+01 0. -1.
      -24    1    4    4    0    0  0.39476707207E+03 -0.23673031520E+03 -0.49353423858E+03  0.67958094165E+03  0.79824358925E+02 0.  1.
       -5    1    4    4    0  502  0.25758900973E+03 -0.19587447465E+03 -0.51480950764E+03  0.60808702248E+03  0.46999998093E+01 0.  1.
</event>
<event>
11   0  0.2741000E-04  0.2554311E+04  0.7818609E-02  0.8039105E-01
       -2   -1    0    0    0  501  0.00000000000E+00  0.00000000000E+00  0.14070706137E+04  0.14070706137E+04  0.00000000000E+00 0.  1.
        2   -1    0    0  501    0  0.00000000000E+00  0.00000000000E+00 -0.11592358972E+04  0.11592358972E+04  0.00000000000E+00 0. -1.
  9900113    2    1    2    0    0 -0.14210854715E-13  0.00000000000E+00  0.24783471659E+03  0.25663065109E+04  0.25543114652E+04 0.  0.
        6    2    3    3  502    0 -0.84554751949E+02 -0.65637083293E+03 -0.41252700867E+03  0.79880668928E+03  0.17303588519E+03 0.  0.
 -8000001    2    3    3    0  502  0.84554751949E+02  0.65637083293E+03  0.66036172526E+03  0.17674998216E+04  0.15000019450E+04 0.  0.
       -6    2    5    5    0  502  0.43695722792E+03 -0.26108343359E+03  0.55242747732E+03  0.77091332859E+03  0.17330627275E+03 0.  0.
       25    1    5    5    0    0 -0.35240247597E+03  0.91745426651E+03  0.10793424794E+03  0.99658649303E+03  0.12500000000E+03 0.  0.
      -24    1    6    6    0    0  0.29180874483E+03 -0.23482247618E+03  0.45188586288E+03  0.59234002078E+03  0.79824358925E+02 0.  0.
       -5    1    6    6    0  502  0.14514848309E+03 -0.26260957414E+02  0.10054161444E+03  0.17857330781E+03  0.46999998093E+01 0.  1.
       24    1    4    4    0    0 -0.53056032244E+02 -0.48303788004E+03 -0.37408814135E+03  0.61842897886E+03  0.79824358925E+02 0. -1.
        5    1    4    4  502    0 -0.31498719704E+02 -0.17333295288E+03 -0.38438867317E+02  0.18037771042E+03  0.46999998093E+01 0. -1.
</event>
<event>
11   0  0.2741000E-04  0.2719378E+04  0.7818609E-02  0.7985787E-01
       -1   -1    0    0    0  501  0.00000000000E+00  0.00000000000E+00  0.79753161398E+03  0.79753161398E+03  0.00000000000E+00 0.  1.
        1   -1    0    0  501    0  0.00000000000E+00  0.00000000000E+00 -0.23180951125E+04  0.23180951125E+04  0.00000000000E+00 0. -1.
  9900113    2    1    2    0    0  0.00000000000E+00  0.00000000000E+00 -0.15205634985E+04  0.31156267264E+04  0.27193779704E+04 0.  0.
        6    2    3    3  502    0 -0.81698796383E+03 -0.45051733660E+03 -0.45775218161E+03  0.10540726182E+04  0.17634290728E+03 0.  0.
 -8000001    2    3    3    0  502  0.81698796383E+03  0.45051733660E+03 -0.10628113169E+04  0.20615541083E+04  0.15000007475E+04 0.  0.
       -6    2    5    5    0  502  0.48383297610E+02 -0.21933925914E+03  0.26163945132E+03  0.38547062912E+03  0.17228392073E+03 0.  0.
       25    1    5    5    0    0  0.76860466622E+03  0.66985659574E+03 -0.13244507682E+04  0.16760834792E+04  0.12500000000E+03 0.  0.
      -24    1    6    6    0    0  0.80924222457E+02 -0.18532898652E+03  0.25891282696E+03  0.33808777450E+03  0.79824358925E+02 0.  0.
       -5    1    6    6    0  502 -0.32540924847E+02 -0.34010272616E+02  0.27266243628E+01  0.47382854620E+02  0.46999998093E+01 0.  1.
       24    1    4    4    0    0 -0.57622490010E+03 -0.38365033018E+03 -0.30110192158E+03  0.75911593765E+03  0.79824358925E+02 0.  0.
        5    1    4    4  502    0 -0.24076306373E+03 -0.66867006416E+02 -0.15665026003E+03  0.29495668050E+03  0.46999998093E+01 0. -1.
</event>
<event>
11   0  0.2741000E-04  0.2308647E+04  0.7818609E-02  0.8126686E-01
        1   -1    0    0  501    0  0.00000000000E+00  0.00000000000E+00  0.15731444530E+04  0.15731444530E+04  0.00000000000E+00 0. -1.
       -1   -1    0    0    0  501  0.00000000000E+00  0.00000000000E+00 -0.84700600950E+03  0.84700600950E+03  0.00000000000E+00 0.  1.
  9900113    2    1    2    0    0  0.00000000000E+00  0.00000000000E+00  0.72613844347E+03  0.24201504625E+04  0.23086470544E+04 0.  0.
        6    2    3    3  502    0 -0.35564590055E+03 -0.53828690951E+03  0.30047196685E+03  0.73271839257E+03  0.17422983792E+03 0.  0.
 -8000001    2    3    3    0  502  0.35564590055E+03  0.53828690951E+03  0.42566647662E+03  0.16874320699E+04  0.14999994126E+04 0.  0.
       -6    2    5    5    0  502 -0.15127922791E+03 -0.12705708311E+03  0.74014227315E+03  0.78511519596E+03  0.17194876929E+03 0.  0.
       25    1    5    5    0    0  0.50692512847E+03  0.66534399262E+03 -0.31447579653E+03  0.90231687393E+03  0.12500000000E+03 0.  0.
      -24    1    6    6    0    0 -0.62404014899E+02 -0.11024936582E+03  0.29471003736E+03  0.33056787221E+03  0.79824358925E+02 0.  0.
       -5    1    6    6    0  502 -0.88875213012E+02 -0.16807717285E+02  0.44543223579E+03  0.45454732375E+03  0.46999998093E+01 0.  1.
       24    1    4    4    0    0 -0.71317225721E+02 -0.10906567542E+03  0.81776172348E+02  0.17332264388E+03  0.79824358925E+02 0. -1.
        5    1    4    4  502    0 -0.28432867483E+03 -0.42922123409E+03  0.21869579450E+03  0.55939574869E+03  0.46999998093E+01 0. -1.
</event>
<event>
11   0  0.2741000E-04  0.2566690E+04  0.7818609E-02  0.8034964E-01
       -1   -1    0    0    0  501  0.00000000000E+00  0.00000000000E+00  0.96502095012E+03  0.96502095012E+03  0.00000000000E+00 0.  1.
        1   -1    0    0  501    0  0.00000000000E+00  0.00000000000E+00 -0.17066721857E+04  0.17066721857E+04  0.00000000000E+00 0. -1.
  9900113    2    1    2    0    0  0.00000000000E+00  0.00000000000E+00 -0.74165123558E+03  0.26716931358E+04  0.25666900196E+04 0.  0.
       -6    2    3    3    0  502 -0.27397404590E+03  0.53673392777E+03 -0.84480910987E+03  0.10518854551E+04  0.17209152046E+03 0.  0.
  8000001    2    3    3  502    0  0.27397404590E+03 -0.53673392777E+03  0.10315787430E+03  0.16198076808E+04  0.14999967629E+04 0.  0.
        6    2    5    5  502    0  0.13525891880E+03 -0.84820351894E+03  0.55728246227E+03  0.10383359840E+04  0.17272431297E+03 0.  0.
       25    1    5    5    0    0  0.13871512710E+03  0.31146959117E+03 -0.45412458798E+03  0.58147169674E+03  0.12500000000E+03 0.  0.
       24    1    6    6    0    0  0.16079823471E+03 -0.80476183241E+03  0.51311587567E+03  0.97116296744E+03  0.79824358925E+02 0.  0.
        5    1    6    6  502    0 -0.25539315906E+02 -0.43441686529E+02  0.44166586602E+02  0.67173016574E+02  0.46999998093E+01 0. -1.
      -24    1    4    4    0    0 -0.27061967667E+03  0.45398791689E+03 -0.78466970524E+03  0.94943062553E+03  0.79824358925E+02 0. -1.
       -5    1    4    4    0  502 -0.33543692328E+01  0.82746010875E+02 -0.60139404631E+02  0.10245482954E+03  0.46999998093E+01 0.  1.
</event>
<event>
11   0  0.2741000E-04  0.2483712E+04  0.7818609E-02  0.8063193E-01
       -1   -1    0    0    0  501  0.00000000000E+00  0.00000000000E+00  0.10760953455E+04  0.10760953455E+04  0.00000000000E+00 0.  1.
        1   -1    0    0  501    0  0.00000000000E+00  0.00000000000E+00 -0.14331503234E+04  0.14331503234E+04  0.00000000000E+00 0. -1.
  9900113    2    1    2    0    0  0.56843418861E-13  0.56843418861E-13 -0.35705497791E+03  0.25092456690E+04  0.24837120546E+04 0.  0.
        6    2    3    3  502    0 -0.49231732551E+03 -0.46049942301E+03  0.27391074406E+03  0.74783985417E+03  0.17263048450E+03 0.  0.
 -8000001    2    3    3    0  502  0.49231732551E+03  0.46049942301E+03 -0.63096572197E+03  0.17614058148E+04  0.14999988782E+04 0.  0.
       -6    2    5    5    0  502 -0.90779604754E+02 -0.48694032495E+03 -0.21640876791E+03  0.56761916122E+03  0.17322511553E+03 0.  0.
       25    1    5    5    0    0  0.58309693026E+03  0.94743974797E+03 -0.41455695406E+03  0.11937866536E+04  0.12500000000E+03 0.  0.
      -24    1    6    6    0    0 -0.11725577470E+03 -0.27714095736E+03 -0.10503452464E+03  0.32857298518E+03  0.79824358925E+02 0. -1.
       -5    1    6    6    0  502  0.26476169942E+02 -0.20979936760E+03 -0.11137424327E+03  0.23904617605E+03  0.46999998093E+01 0.  1.
       24    1    4    4    0    0 -0.41439658523E+03 -0.45022012080E+03  0.24573619189E+03  0.66421449194E+03  0.79824358925E+02 0.  0.
        5    1    4    4  502    0 -0.77920740278E+02 -0.10279302216E+02  0.28174552170E+02  0.83625362228E+02  0.46999998093E+01 0. -1.
</event>
<event>
11   0  0.2741000E-04  0.2504144E+04  0.7818609E-02  0.8056138E-01
        2   -1    0    0  501    0  0.00000000000E+00  0.00000000000E+00  0.12914246779E+04  0.12914246779E+04  0.00000000000E+00 0. -1.
       -2   -1    0    0    0  501  0.00000000000E+00  0.00000000000E+00 -0.12139188165E+04  0.12139188165E+04  0.00000000000E+00 0.  1.
  9900113    2    1    2    0    0  0.28421709430E-13 -0.11368683772E-12  0.77505861408E+02  0.25053434944E+04  0.25041443381E+04 0.  0.
        6    2    3    3  502    0 -0.17649961070E+03 -0.51812461064E+03 -0.54503431171E+03  0.79152811660E+03  0.17276901835E+03 0.  0.
 -8000001    2    3    3    0  502  0.17649961070E+03  0.51812461064E+03  0.62254017312E+03  0.17138153777E+04  0.15000005524E+04 0.  0.
       -6    2    5    5    0  502 -0.35995589518E+03  0.84706681695E+03  0.23944542201E+03  0.96657105813E+03  0.17272828786E+03 0.  0.
       25    1    5    5    0    0  0.53645550588E+03 -0.32894220631E+03  0.38309475111E+03  0.74724431962E+03  0.12500000000E+03 0.  0.
      -24    1    6    6    0    0 -0.37418360819E+03  0.81586091725E+03  0.22329582737E+03  0.92837242728E+03  0.79824358925E+02 0.  0.
       -5    1    6    6    0  502  0.14227713003E+02  0.31205899700E+02  0.16149594637E+02  0.38198630846E+02  0.46999998093E+01 0.  1.
       24    1    4    4    0    0 -0.14908641161E+03 -0.51909786318E+03 -0.52293320135E+03  0.75598968977E+03  0.79824358925E+02 0.  0.
        5    1    4    4  502    0 -0.27413199082E+02  0.97325253884E+00 -0.22101110363E+02  0.35538426835E+02  0.46999998093E+01 0. -1.
</event>
<event>
11   0  0.2741000E-04  0.2510422E+04  0.7818609E-02  0.8053984E-01
       -2   -1    0    0    0  501  0.00000000000E+00  0.00000000000E+00  0.89950394490E+03  0.89950394490E+03  0.00000000000E+00 0.  1.
        2   -1    0    0  501    0  0.00000000000E+00  0.00000000000E+00 -0.17515817494E+04  0.17515817494E+04  0.00000000000E+00 0. -1.
  9900113    2    1    2    0    0  0.00000000000E+00  0.00000000000E+00 -0.85207780453E+03  0.26510856943E+04  0.25104220310E+04 0.  0.
       -6    2    3    3    0  502 -0.27665742251E+03  0.57396422178E+03 -0.77683484543E+03  0.10196331011E+04  0.17379593334E+03 0.  0.
  8000001    2    3    3  502    0  0.27665742251E+03 -0.57396422178E+03 -0.75242959102E+02  0.16314525932E+04  0.15000006013E+04 0.  0.
        6    2    5    5  502    0  0.39309151912E+03  0.32979366678E+03  0.32179526131E+03  0.62965442572E+03  0.17212698967E+03 0.  0.
       25    1    5    5    0    0 -0.11643409661E+03 -0.90375788856E+03 -0.39703822041E+03  0.10017981675E+04  0.12500000000E+03 0.  0.
       24    1    6    6    0    0  0.17688963205E+03  0.19573714879E+03  0.23058322426E+03  0.35936544760E+03  0.79824358925E+02 0.  0.
        5    1    6    6  502    0  0.21620188708E+03  0.13405651800E+03  0.91212037046E+02  0.27028897812E+03  0.46999998093E+01 0. -1.
      -24    1    4    4    0    0 -0.83944357141E+02  0.12057038859E+03 -0.21552813207E+03  0.27277862397E+03  0.79824358925E+02 0. -1.
       -5    1    4    4    0  502 -0.19271306537E+03  0.45339383319E+03 -0.56130671335E+03  0.74685447712E+03  0.46999998093E+01 0.  1.
</event>
<event>
11   0  0.2741000E-04  0.2497132E+04  0.7818609E-02  0.8058551E-01
       -1   -1    0    0    0  501  0.00000000000E+00  0.00000000000E+00  0.66246231252E+03  0.66246231252E+03  0.00000000000E+00 0.  1.
        1   -1    0    0  501    0  0.00000000000E+00  0.00000000000E+00 -0.23532166999E+04  0.23532166999E+04  0.00000000000E+00 0. -1.
  9900113    2    1    2    0    0  0.00000000000E+00  0.00000000000E+00 -0.16907543874E+04  0.30156790125E+04  0.24971322567E+04 0.  0.
        6    2    3    3  502    0  0.79308869650E+02 -0.70818228874E+03 -0.14975639980E+03  0.75017949319E+03  0.18036141999E+03 0.  0.
 -8000001    2    3    3    0  502 -0.79308869650E+02  0.70818228874E+03 -0.15409979876E+04  0.22654995193E+04  0.15000004077E+04 0.  0.
       -6    2    5    5    0  502 -0.17635782630E+03  0.24689168480E+03 -0.17133281360E+04  0.17482663017E+04  0.16995344464E+03 0.  0.
       25    1    5    5    0    0  0.97048956654E+02  0.46129060394E+03  0.17233014837E+03  0.51723321752E+03  0.12500000000E+03 0.  0.
      -24    1    6    6    0    0 -0.18873310849E+03  0.19207440825E+03 -0.15557960306E+04  0.15809446485E+04  0.79824358925E+02 0. -1.
       -5    1    6    6    0  502  0.12375282181E+02  0.54817276549E+02 -0.15753210543E+03  0.16732165328E+03  0.46999998093E+01 0.  1.
       24    1    4    4    0    0  0.91636785151E+02 -0.50739875305E+03 -0.45963238105E+02  0.52377031466E+03  0.79824358925E+02 0.  0.
        5    1    4    4  502    0 -0.12327915501E+02 -0.20078353570E+03 -0.10379316169E+03  0.22640917852E+03  0.46999998093E+01 0. -1.
</event>
<event>
11   0  0.2741000E-04  0.2481692E+04  0.7818609E-02  0.8063895E-01
        1   -1    0    0  501    0  0.00000000000E+00  0.00000000000E+00  0.22034635029E+04  0.22034635029E+04  0.00000000000E+00 0. -1.
       -1   -1    0    0    0  501  0.00000000000E+00  0.00000000000E+00 -0.69876284901E+03  0.69876284901E+03  0.00000000000E+00 0.  1.
  9900113    2    1    2    0    0  0.00000000000E+00  0.00000000000E+00  0.15047006539E+04  0.29022263519E+04  0.24816917093E+04 0.  0.
       -6    2    3    3    0  502  0.60130295840E+03  0.47802355022E+03  0.59770466389E+03  0.98840411977E+03  0.17210484125E+03 0.  0.
  8000001    2    3    3  502    0 -0.60130295840E+03 -0.47802355022E+03  0.90699598999E+03  0.19138222321E+04  0.15000006827E+04 0.  0.
        6    2    5    5  502    0 -0.97717141358E+03 -0.69258519228E+03  0.50916747759E+03  0.13128178069E+04  0.17233935670E+03 0.  0.
       25    1    5    5    0    0  0.37586845518E+03  0.21456164206E+03  0.39782851240E+03  0.60100442521E+03  0.12500000000E+03 0.  0.
       24    1    6    6    0    0 -0.71268506120E+03 -0.56885011347E+03  0.42273121376E+03  0.10082579310E+04  0.79824358925E+02 0.  1.
        5    1    6    6  502    0 -0.26448635238E+03 -0.12373507881E+03  0.86436263824E+02  0.30455987593E+03  0.46999998093E+01 0. -1.
      -24    1    4    4    0    0  0.26499332491E+03  0.24722374966E+03  0.35605745478E+03  0.51428579995E+03  0.79824358925E+02 0. -1.
       -5    1    4    4    0  502  0.33630963350E+03  0.23079980056E+03  0.24164720911E+03  0.47411831982E+03  0.46999998093E+01 0.  1.
</event>
<event>
11   0  0.2741000E-04  0.2507094E+04  0.7818609E-02  0.8055125E-01
        2   -1    0    0  501    0  0.00000000000E+00  0.00000000000E+00  0.14271984678E+04  0.14271984678E+04  0.00000000000E+00 0. -1.
       -2   -1    0    0    0  501  0.00000000000E+00  0.00000000000E+00 -0.11010244056E+04  0.11010244056E+04  0.00000000000E+00 0.  1.
  9900113    2    1    2    0    0  0.11368683772E-12  0.00000000000E+00  0.32617406217E+03  0.25282228735E+04  0.25070942102E+04 0.  0.
       -6    2    3    3    0  502 -0.54858032245E+03  0.54479792401E+03 -0.68821956700E+02  0.79508409722E+03  0.17227046103E+03 0.  0.
  8000001    2    3    3  502    0  0.54858032245E+03 -0.54479792401E+03  0.39499601887E+03  0.17331387762E+04  0.15000010049E+04 0.  0.
        6    2    5    5  502    0  0.62864400416E+03  0.74271556428E+02  0.75637602808E+03  0.10011020792E+04  0.17143841188E+03 0.  0.
       25    1    5    5    0    0 -0.80063681713E+02 -0.61906948044E+03 -0.36138000921E+03  0.73203669703E+03  0.12500000000E+03 0.  0.
       24    1    6    6    0    0  0.56352183906E+03  0.96540882608E+02  0.72083554293E+03  0.92350030500E+03  0.79824358925E+02 0.  0.
        5    1    6    6  502    0  0.65122165105E+02 -0.22269326180E+02  0.35540485153E+02  0.77601774204E+02  0.46999998093E+01 0. -1.
      -24    1    4    4    0    0 -0.26991312931E+03  0.35180469412E+03 -0.76864926772E+01  0.45061141866E+03  0.79824358925E+02 0. -1.
       -5    1    4    4    0  502 -0.27866719314E+03  0.19299322989E+03 -0.61135464022E+02  0.34447267856E+03  0.46999998093E+01 0.  1.
</event>
<event>
11   0  0.2741000E-04  0.2495352E+04  0.7818609E-02  0.8059165E-01
        2   -1    0    0  501    0  0.00000000000E+00  0.00000000000E+00  0.17210492223E+04  0.17210492223E+04  0.00000000000E+00 0. -1.
       -2   -1    0    0    0  501  0.00000000000E+00  0.00000000000E+00 -0.90450349965E+03  0.90450349965E+03  0.00000000000E+00 0.  1.
  9900113    2    1    2    0    0  0.14210854715E-13  0.00000000000E+00  0.81654572265E+03  0.26255527220E+04  0.24953517144E+04 0.  0.
        6    2    3    3  502    0 -0.87716180673E+02  0.60290848590E+03  0.78257787268E+03  0.10061862604E+04  0.16967584732E+03 0.  0.
 -8000001    2    3    3    0  502  0.87716180673E+02 -0.60290848590E+03  0.33967849972E+02  0.16193664615E+04  0.15000003837E+04 0.  0.
       -6    2    5    5    0  502 -0.52595862139E+02 -0.11605848917E+03  0.72373444543E+03  0.75443100446E+03  0.17070060154E+03 0.  0.
       25    1    5    5    0    0  0.14031204281E+03 -0.48684999673E+03 -0.68976659545E+03  0.86493545706E+03  0.12500000000E+03 0.  0.
      -24    1    6    6    0    0 -0.45420632772E+02 -0.57113927259E+02  0.65327671278E+03  0.66216872949E+03  0.79824358925E+02 0.  0.
       -5    1    6    6    0  502 -0.71752293670E+01 -0.58944561907E+02  0.70457732645E+02  0.92262274969E+02  0.46999998093E+01 0.  1.
       24    1    4    4    0    0 -0.37032166386E+02  0.19241288138E+03  0.19586185258E+03  0.28831907991E+03  0.79824358925E+02 0.  0.
        5    1    4    4  502    0 -0.50684014287E+02  0.41049560452E+03  0.58671602010E+03  0.71786718052E+03  0.46999998093E+01 0. -1.
</event>
<event>
11   0  0.2741000E-04  0.2527692E+04  0.7818609E-02  0.8048092E-01
       -2   -1    0    0    0  501  0.00000000000E+00  0.00000000000E+00  0.51364481251E+03  0.51364481251E+03  0.00000000000E+00 0.  1.
        2   -1    0    0  501    0  0.00000000000E+00  0.00000000000E+00 -0.31097492454E+04  0.31097492454E+04  0.00000000000E+00 0. -1.
  9900113    2    1    2    0    0  0.00000000000E+00  0.00000000000E+00 -0.25961044329E+04  0.36233940580E+04  0.25276918864E+04 0.  0.
        6    2    3    3  502    0 -0.53530087183E+03  0.55062365921E+03 -0.12068841640E+04  0.14394373494E+04  0.16024063182E+03 0.  0.
 -8000001    2    3    3    0  502  0.53530087183E+03 -0.55062365921E+03 -0.13892202689E+04  0.21839567085E+04  0.15000001706E+04 0.  0.
       -6    2    5    5    0  502 -0.50696312190E+03 -0.16973031684E+03 -0.55936307696E+03  0.79266884116E+03  0.17209547482E+03 0.  0.
       25    1    5    5    0    0  0.10422639937E+04 -0.38089334237E+03 -0.82985719194E+03  0.13912878674E+04  0.12500000000E+03 0.  0.
      -24    1    6    6    0    0 -0.15116054803E+03 -0.24561866811E+02 -0.12811763024E+03  0.21503221163E+03  0.79824358925E+02 0. -1.
       -5    1    6    6    0  502 -0.35580257386E+03 -0.14516845003E+03 -0.43124544673E+03  0.57763662953E+03  0.46999998093E+01 0.  1.
       24    1    4    4    0    0 -0.54116553526E+03  0.52688561657E+03 -0.11720962285E+04  0.13966567533E+04  0.79824358925E+02 0. -1.
        5    1    4    4  502    0  0.58646634304E+01  0.23738042637E+02 -0.34787935566E+02  0.42780596121E+02  0.46999998093E+01 0. -1.
</event>
<event>
11   0  0.2741000E-04  0.2538503E+04  0.7818609E-02  0.8044428E-01
       -2   -1    0    0    0  501  0.00000000000E+00  0.00000000000E+00  0.91566074847E+03  0.91566074847E+03  0.00000000000E+00 0.  1.
        2   -1    0    0  501    0  0.00000000000E+00  0.00000000000E+00 -0.17593852241E+04  0.17593852241E+04  0.00000000000E+00 0. -1.
  9900113    2    1    2    0    0  0.00000000000E+00 -0.56843418861E-13 -0.84372447567E+03  0.26750459726E+04  0.25385034892E+04 0.  0.
       -6    2    3    3    0  502  0.15772401418E+03  0.26102622370E+03  0.51877522126E+03  0.62579789546E+03  0.17170824573E+03 0.  0.
  8000001    2    3    3  502    0 -0.15772401418E+03 -0.26102622370E+03 -0.13624996969E+04  0.20492480772E+04  0.15000002345E+04 0.  0.
        6    2    5    5  502    0  0.18910573120E+03 -0.80390007397E+03 -0.56092877859E+03  0.10133215225E+04  0.17367529110E+03 0.  0.
       25    1    5    5    0    0 -0.34682974538E+03  0.54287385027E+03 -0.80157091834E+03  0.10359265547E+04  0.12500000000E+03 0.  0.
       24    1    6    6    0    0  0.11257622420E+03 -0.66927816594E+03 -0.40938574516E+03  0.79660233886E+03  0.79824358925E+02 0.  0.
        5    1    6    6  502    0  0.76529506998E+02 -0.13462190803E+03 -0.15154303343E+03  0.21671918361E+03  0.46999998093E+01 0. -1.
      -24    1    4    4    0    0  0.13071311095E+03  0.13745272330E+03  0.41062834438E+03  0.45931115162E+03  0.79824358925E+02 0.  1.
       -5    1    4    4    0  502  0.27010903230E+02  0.12357350040E+03  0.10814687689E+03  0.16648674384E+03  0.46999998093E+01 0.  1.
</event>
<event>
11   0  0.2741000E-04  0.2456341E+04  0.7818609E-02  0.8072756E-01
       -2   -1    0    0    0  501  0.00000000000E+00  0.00000000000E+00  0.51300616518E+03  0.51300616518E+03  0.00000000000E+00 0.  1.
        2   -1    0    0  501    0  0.00000000000E+00  0.00000000000E+00 -0.29403214669E+04  0.29403214669E+04  0.00000000000E+00 0. -1.
  9900113    2    1    2    0    0  0.00000000000E+00  0.00000000000E+00 -0.24273153017E+04  0.34533276320E+04  0.24563412142E+04 0.  0.
        6    2    3    3  502    0  0.24764280521E+03  0.69182251944E+03 -0.51228777286E+03  0.91221056378E+03  0.17246446900E+03 0.  0.
 -8000001    2    3    3    0  502 -0.24764280521E+03 -0.69182251944E+03 -0.19150275288E+04  0.25411170682E+04  0.15000000537E+04 0.  0.
       -6    2    5    5    0  502 -0.56298100991E+03  0.20515116404E+03 -0.11773209032E+04  0.13312261485E+04  0.16445039295E+03 0.  0.
       25    1    5    5    0    0  0.31533820470E+03 -0.89697368348E+03 -0.73770662561E+03  0.12098909197E+04  0.12500000000E+03 0.  0.
      -24    1    6    6    0    0 -0.52932885776E+03  0.22413224717E+03 -0.10731074037E+04  0.12199818573E+04  0.79824358925E+02 0. -1.
       -5    1    6    6    0  502 -0.33652152145E+02 -0.18981083127E+02 -0.10421349947E+03  0.11124429122E+03  0.46999998093E+01 0.  1.
       24    1    4    4    0    0  0.77548113969E+02  0.15028960643E+03 -0.13432374242E+03  0.23025088889E+03  0.79824358925E+02 0.  0.
        5    1    4    4  502    0  0.17009469124E+03  0.54153291301E+03 -0.37796403045E+03  0.68195967489E+03  0.46999998093E+01 0. -1.
</event>
<event>
11   0  0.2741000E-04  0.2495149E+04  0.7818609E-02  0.8059235E-01
       -2   -1    0    0    0  501  0.00000000000E+00  0.00000000000E+00  0.51943152390E+03  0.51943152390E+03  0.00000000000E+00 0.  1.
        2   -1    0    0  501    0  0.00000000000E+00  0.00000000000E+00 -0.29964336881E+04  0.29964336881E+04  0.00000000000E+00 0. -1.
  9900113    2    1    2    0    0 -0.56843418861E-13 -0.56843418861E-13 -0.24770021642E+04  0.35158652120E+04  0.24951489870E+04 0.  0.
        6    2    3    3  502    0 -0.20688731621E+03 -0.26424772525E+03 -0.17955290535E+04  0.18344867276E+04  0.16966953193E+03 0.  0.
 -8000001    2    3    3    0  502  0.20688731621E+03  0.26424772525E+03 -0.68147311074E+03  0.16813784844E+04  0.14999995951E+04 0.  0.
       -6    2    5    5    0  502 -0.61540463728E+03 -0.11622060773E+02 -0.42823844118E+03  0.76922663657E+03  0.17164939852E+03 0.  0.
       25    1    5    5    0    0  0.82229195349E+03  0.27586978602E+03 -0.25323466956E+03  0.91215184782E+03  0.12500000000E+03 0.  0.
      -24    1    6    6    0    0 -0.48622251817E+03  0.13579707746E+02 -0.39936314706E+03  0.63439703431E+03  0.79824358925E+02 0. -1.
       -5    1    6    6    0  502 -0.12918211911E+03 -0.25201768519E+02 -0.28875294119E+02  0.13482960225E+03  0.46999998093E+01 0.  1.
       24    1    4    4    0    0 -0.22690046401E+03 -0.24536336904E+03 -0.17195388171E+04  0.17535314868E+04  0.79824358925E+02 0. -1.
        5    1    4    4  502    0  0.20013147797E+02 -0.18884356207E+02 -0.75990236418E+02  0.80955240863E+02  0.46999998093E+01 0. -1.
</event>
<event>
10   0  0.2741000E-04  0.1865484E+04  0.7818609E-02  0.8317791E-01
       -2   -1    0    0    0  501  0.00000000000E+00  0.00000000000E+00  0.11374423407E+04  0.11374423407E+04  0.00000000000E+00 0.  1.
        2   -1    0    0  501    0  0.00000000000E+00  0.00000000000E+00 -0.76488077582E+03  0.76488077582E+03  0.00000000000E+00 0. -1.
       -6    2    1    2    0  502 -0.28889637865E+03  0.10272553138E+01  0.42836314756E+02  0.33957331505E+03  0.17324235504E+03 0.  0.
  8000001    2    1    2  502    0  0.28889637865E+03 -0.10272553138E+01  0.32972525014E+03  0.15627498015E+04  0.15000020095E+04 0.  0.
        6    2    4    4  502    0  0.21937923678E+03 -0.18357659862E+03  0.89335847567E+03  0.95327108268E+03  0.16973147596E+03 0.  0.
       25    1    4    4    0    0  0.69517141875E+02  0.18254934331E+03 -0.56363322553E+03  0.60947871881E+03  0.12500000000E+03 0.  0.
       24    1    5    5    0    0  0.17558291457E+03 -0.12857392244E+03  0.81752153446E+03  0.84974937541E+03  0.79824358925E+02 0.  0.
        5    1    5    5  502    0  0.43796322210E+02 -0.55002676181E+02  0.75836941206E+02  0.10352170727E+03  0.46999998093E+01 0. -1.
      -24    1    3    3    0    0 -0.18753110018E+03  0.56588603267E+02 -0.11339648215E+02  0.21182705081E+03  0.79824358925E+02 0.  0.
       -5    1    3    3    0  502 -0.10136527847E+03 -0.55561347953E+02  0.54175962971E+02  0.12774626424E+03  0.46999998093E+01 0.  1.
</event>
<event>
11   0  0.2741000E-04  0.2522596E+04  0.7818609E-02  0.8049825E-01
        1   -1    0    0  501    0  0.00000000000E+00  0.00000000000E+00  0.14582467840E+04  0.14582467840E+04  0.00000000000E+00 0. -1.
       -1   -1    0    0    0  501  0.00000000000E+00  0.00000000000E+00 -0.10909492506E+04  0.10909492506E+04  0.00000000000E+00 0.  1.
  9900113    2    1    2    0    0  0.00000000000E+00  0.17053025658E-12  0.36729753339E+03  0.25491960346E+04  0.25225964689E+04 0.  0.
       -6    2    3    3    0  502 -0.66410269431E+03  0.25546031597E+03  0.49603269238E+03  0.88400287888E+03  0.17064670034E+03 0.  0.
  8000001    2    3    3  502    0  0.66410269431E+03 -0.25546031597E+03 -0.12873515899E+03  0.16651931557E+04  0.15000010477E+04 0.  0.
        6    2    5    5  502    0  0.30150146707E+03 -0.72187931523E+03  0.36904884828E+03  0.88260753690E+03  0.17545977138E+03 0.  0.
       25    1    5    5    0    0  0.36260122723E+03  0.46641899925E+03 -0.49778400726E+03  0.78258561880E+03  0.12500000000E+03 0.  0.
       24    1    6    6    0    0  0.27554750472E+03 -0.55693323836E+03  0.34086357753E+03  0.71320471543E+03  0.79824358925E+02 0.  0.
        5    1    6    6  502    0  0.25953962351E+02 -0.16494607687E+03  0.28185270749E+02  0.16940282147E+03  0.46999998093E+01 0. -1.
      -24    1    4    4    0    0 -0.64269993675E+03  0.21195008724E+03  0.47652762066E+03  0.83152663801E+03  0.79824358925E+02 0.  0.
       -5    1    4    4    0  502 -0.21402757558E+02  0.43510228734E+02  0.19505071718E+02  0.52476240877E+02  0.46999998093E+01 0.  1.
</event>
<event>
11   0  0.2741000E-04  0.2512458E+04  0.7818609E-02  0.8053287E-01
       -1   -1    0    0    0  501  0.00000000000E+00  0.00000000000E+00  0.12594019806E+04  0.12594019806E+04  0.00000000000E+00 0.  1.
        1   -1    0    0  501    0  0.00000000000E+00  0.00000000000E+00 -0.12530641173E+04  0.12530641173E+04  0.00000000000E+00 0. -1.
  9900113    2    1    2    0    0  0.00000000000E+00 -0.56843418861E-13  0.63378633238E+01  0.25124660979E+04  0.25124581041E+04 0.  0.
       -6    2    3    3    0  502  0.53049587172E+03  0.19238444781E+03  0.56476118075E+03  0.81533000246E+03  0.16543934228E+03 0.  0.
  8000001    2    3    3  502    0 -0.53049587172E+03 -0.19238444781E+03 -0.55842331742E+03  0.16971360955E+04  0.14999988931E+04 0.  0.
        6    2    5    5  502    0  0.30406728735E+02  0.56624074206E+03 -0.43924799217E+03  0.73799498799E+03  0.17362216608E+03 0.  0.
       25    1    5    5    0    0 -0.56090260045E+03 -0.75862518988E+03 -0.11917532525E+03  0.95914110748E+03  0.12500000000E+03 0.  0.
       24    1    6    6    0    0  0.10804006028E+02  0.42344837487E+03 -0.40117592065E+03  0.58884573558E+03  0.79824358925E+02 0.  0.
        5    1    6    6  502    0  0.19602722707E+02  0.14279236720E+03 -0.38072071515E+02  0.14914925241E+03  0.46999998093E+01 0. -1.
      -24    1    4    4    0    0  0.27759912779E+03  0.68059767888E+02  0.21664834971E+03  0.36742597004E+03  0.79824358925E+02 0.  1.
       -5    1    4    4    0  502  0.25289674393E+03  0.12432467992E+03  0.34811283104E+03  0.44790403242E+03  0.46999998093E+01 0.  1.
</event>
<event>
11   0  0.2741000E-04  0.2497906E+04  0.7818609E-02  0.8058285E-01
        2   -1    0    0  501    0  0.00000000000E+00  0.00000000000E+00  0.19121569760E+04  0.19121569760E+04  0.00000000000E+00 0. -1.
       -2   -1    0    0    0  501  0.00000000000E+00  0.00000000000E+00 -0.81577144776E+03  0.81577144776E+03  0.00000000000E+00 0.  1.
  9900113    2    1    2    0    0  0.19895196601E-12 -0.35527136788E-14  0.10963855283E+04  0.27279284238E+04  0.24979055744E+04 0.  0.
       -6    2    3    3    0  502  0.23799364255E+03  0.15868951428E+02 -0.46466237278E+03  0.54991000401E+03  0.17203806067E+03 0.  0.
  8000001    2    3    3  502    0 -0.23799364255E+03 -0.15868951428E+02  0.15610479010E+04  0.21780184198E+04  0.15000002967E+04 0.  0.
        6    2    5    5  502    0 -0.82790912821E+03  0.17173380177E+03  0.10852609483E+04  0.13873267621E+04  0.17876855283E+03 0.  0.
       25    1    5    5    0    0  0.58991548566E+03 -0.18760275320E+03  0.47578695270E+03  0.79069165772E+03  0.12500000000E+03 0.  0.
       24    1    6    6    0    0 -0.57141644178E+03  0.65587981254E+02  0.80748431549E+03  0.99459608950E+03  0.79824358925E+02 0. -1.
        5    1    6    6  502    0 -0.25649268643E+03  0.10614582052E+03  0.27777663285E+03  0.39273067255E+03  0.46999998093E+01 0. -1.
      -24    1    4    4    0    0  0.11282994637E+03 -0.35493702116E+01 -0.35965705356E+03  0.38531586949E+03  0.79824358925E+02 0.  0.
       -5    1    4    4    0  502  0.12516369617E+03  0.19418321640E+02 -0.10500531922E+03  0.16459413452E+03  0.46999998093E+01 0.  1.
</event>
<event>
11   0  0.2741000E-04  0.2511445E+04  0.7818609E-02  0.8053633E-01
       -2   -1    0    0    0  501  0.00000000000E+00  0.00000000000E+00  0.55642660071E+03  0.55642660071E+03  0.00000000000E+00 0.  1.
        2   -1    0    0  501    0  0.00000000000E+00  0.00000000000E+00 -0.28338678605E+04  0.28338678605E+04  0.00000000000E+00 0. -1.
  9900113    2    1    2    0    0 -0.11368683772E-12  0.11368683772E-12 -0.22774412598E+04  0.33902944613E+04  0.25114453691E+04 0.  0.
       -6    2    3    3    0  502 -0.59119693767E+03  0.49664875670E+03 -0.48099203497E+03  0.92586640997E+03  0.17234112907E+03 0.  0.
  8000001    2    3    3  502    0  0.59119693767E+03 -0.49664875670E+03 -0.17964492249E+04  0.24644280513E+04  0.15000006653E+04 0.  0.
        6    2    5    5  502    0  0.88171213827E+02 -0.26017144575E+03  0.20478345979E+03  0.38367971100E+03  0.17265720691E+03 0.  0.
       25    1    5    5    0    0  0.50302572384E+03 -0.23647731095E+03 -0.20012326847E+04  0.20807483403E+04  0.12500000000E+03 0.  0.
       24    1    6    6    0    0 -0.15142591945E+02 -0.10707569171E+03  0.12085808755E+03  0.18075703984E+03  0.79824358925E+02 0.  0.
        5    1    6    6  502    0  0.10331380577E+03 -0.15309575404E+03  0.83925372240E+02  0.20292267116E+03  0.46999998093E+01 0. -1.
      -24    1    4    4    0    0 -0.38181882176E+03  0.26164719499E+03 -0.34590259726E+03  0.58332272574E+03  0.79824358925E+02 0. -1.
       -5    1    4    4    0  502 -0.20937811591E+03  0.23500156171E+03 -0.13508943771E+03  0.34254368423E+03  0.46999998093E+01 0.  1.
</event>
<event>
11   0  0.2741000E-04  0.2443368E+04  0.7818609E-02  0.8077334E-01
        1   -1    0    0  501    0  0.00000000000E+00  0.00000000000E+00  0.28972566705E+04  0.28972566705E+04  0.00000000000E+00 0. -1.
       -1   -1    0    0    0  501  0.00000000000E+00  0.00000000000E+00 -0.51514647528E+03  0.51514647528E+03  0.00000000000E+00 0.  1.
  9900113    2    1    2    0    0  0.00000000000E+00  0.17053025658E-12  0.23821101952E+04  0.34124031458E+04  0.24433678084E+04 0.  0.
        6    2    3    3  502    0  0.53221332522E+03 -0.22547687705E+03  0.14119000813E+04  0.15347991637E+04  0.16749862017E+03 0.  0.
 -8000001    2    3    3    0  502 -0.53221332522E+03  0.22547687705E+03  0.97021011395E+03  0.18776039821E+04  0.14999994009E+04 0.  0.
       -6    2    5    5    0  502  0.72138268933E+01 -0.57382958950E+03  0.56040815426E+03  0.82240962744E+03  0.18157053409E+03 0.  0.
       25    1    5    5    0    0 -0.53942715212E+03  0.79930646655E+03  0.40980195969E+03  0.10551943546E+04  0.12500000000E+03 0.  0.
      -24    1    6    6    0    0 -0.63220391449E+01 -0.56310531782E+03  0.49309053116E+03  0.75275345720E+03  0.79824358925E+02 0.  0.
       -5    1    6    6    0  502  0.13535866038E+02 -0.10724271680E+02  0.67317623109E+02  0.69656170234E+02  0.46999998093E+01 0.  1.
       24    1    4    4    0    0  0.15996225884E+03 -0.45073781767E+02  0.35973285978E+03  0.40422670464E+03  0.79824358925E+02 0.  0.
        5    1    4    4  502    0  0.37225106638E+03 -0.18040309528E+03  0.10521672215E+04  0.11305724590E+04  0.46999998093E+01 0. -1.
</event>
<event>
11   0  0.2741000E-04  0.2500411E+04  0.7818609E-02  0.8057422E-01
        1   -1    0    0  501    0  0.00000000000E+00  0.00000000000E+00  0.11257252271E+04  0.11257252271E+04  0.00000000000E+00 0. -1.
       -1   -1    0    0    0  501  0.00000000000E+00  0.00000000000E+00 -0.13884507874E+04  0.13884507874E+04  0.00000000000E+00 0.  1.
  9900113    2    1    2    0    0 -0.28421709430E-13  0.00000000000E+00 -0.26272556030E+03  0.25141760146E+04  0.25004112286E+04 0.  0.
        6    2    3    3  502    0 -0.16561967995E+03  0.65205634610E+03  0.32601900769E+03  0.76797190761E+03  0.17574157342E+03 0.  0.
 -8000001    2    3    3    0  502  0.16561967995E+03 -0.65205634610E+03 -0.58874456799E+03  0.17462041070E+04  0.15000004200E+04 0.  0.
       -6    2    5    5    0  502  0.41403969302E+03 -0.87488248193E+03  0.81881625504E+02  0.98677769112E+03  0.17371639679E+03 0.  0.
       25    1    5    5    0    0 -0.24842001307E+03  0.22282613583E+03 -0.67062619349E+03  0.75942641585E+03  0.12500000000E+03 0.  0.
      -24    1    6    6    0    0  0.31076989851E+03 -0.62358285352E+03  0.12287292658E+03  0.71197134029E+03  0.79824358925E+02 0. -1.
       -5    1    6    6    0  502  0.10326979451E+03 -0.25129962841E+03 -0.40991301074E+02  0.27480635083E+03  0.46999998093E+01 0.  1.
       24    1    4    4    0    0 -0.18063158125E+03  0.53981177765E+03  0.22886141283E+03  0.61868731844E+03  0.79824358925E+02 0.  1.
        5    1    4    4  502    0  0.15011901302E+02  0.11224456845E+03  0.97157594863E+02  0.14928458917E+03  0.46999998093E+01 0. -1.
</event>
<event>
11   0  0.2741000E-04  0.2487998E+04  0.7818609E-02  0.8061707E-01
        2   -1    0    0  501    0  0.00000000000E+00  0.00000000000E+00  0.28988123980E+04  0.28988123980E+04  0.00000000000E+00 0. -1.
       -2   -1    0    0    0  501  0.00000000000E+00  0.00000000000E+00 -0.53385098260E+03  0.53385098260E+03  0.00000000000E+00 0.  1.
  9900113    2    1    2    0    0 -0.11368683772E-12  0.00000000000E+00  0.23649614154E+04  0.34326633806E+04  0.24879982693E+04 0.  0.
        6    2    3    3  502    0 -0.30512096357E+03  0.26987542964E+03 -0.15794753430E+03  0.46938795580E+03  0.17159860000E+03 0.  0.
 -8000001    2    3    3    0  502  0.30512096357E+03 -0.26987542964E+03  0.25229089497E+04  0.29632754248E+04  0.15000000416E+04 0.  0.
       -6    2    5    5    0  502 -0.12907824120E+03 -0.80758764868E+03  0.11566515303E+04  0.14270632923E+04  0.17264957312E+03 0.  0.
       25    1    5    5    0    0  0.43419920477E+03  0.53771221904E+03  0.13662574194E+04  0.15362121325E+04  0.12500000000E+03 0.  0.
      -24    1    6    6    0    0 -0.93518698860E+02 -0.57294182704E+03  0.92767815925E+03  0.10972542001E+04  0.79824358925E+02 0.  0.
       -5    1    6    6    0  502 -0.35559542341E+02 -0.23464582164E+03  0.22897337104E+03  0.32980909221E+03  0.46999998093E+01 0.  1.
       24    1    4    4    0    0 -0.28405347320E+03  0.17159229006E+03 -0.12536461283E+03  0.36361862449E+03  0.79824358925E+02 0.  0.
        5    1    4    4  502    0 -0.21067490367E+02  0.98283139578E+02 -0.32582921468E+02  0.10576933131E+03  0.46999998093E+01 0. -1.
</event>
<event>
11   0  0.2741000E-04  0.2532628E+04  0.7818609E-02  0.8046417E-01
        1   -1    0    0  501    0  0.00000000000E+00  0.00000000000E+00  0.30031173572E+04  0.30031173572E+04  0.00000000000E+00 0. -1.
       -1   -1    0    0    0  501  0.00000000000E+00  0.00000000000E+00 -0.53396211005E+03  0.53396211005E+03  0.00000000000E+00 0.  1.
  9900113    2    1    2    0    0 -0.11368683772E-12  0.00000000000E+00  0.24691552471E+04  0.35370794672E+04  0.25326277901E+04 0.  0.
        6    2    3    3  502    0  0.57138497085E+03 -0.57258701652E+03  0.74903616053E+03  0.11156860673E+04  0.17135797228E+03 0.  0.
 -8000001    2    3    3    0  502 -0.57138497085E+03  0.57258701652E+03  0.17201190866E+04  0.24213933999E+04  0.14999998829E+04 0.  0.
       -6    2    5    5    0  502  0.18792533115E+03  0.29740529213E+03  0.15355855485E+04  0.15835660055E+04  0.16091140108E+03 0.  0.
       25    1    5    5    0    0 -0.75931030200E+03  0.27518172439E+03  0.18453353807E+03  0.83782739442E+03  0.12500000000E+03 0.  0.
      -24    1    6    6    0    0  0.13433940136E+03  0.27899101884E+03  0.14084786465E+04  0.14443223634E+04  0.79824358925E+02 0.  0.
       -5    1    6    6    0  502  0.53585929791E+02  0.18414273289E+02  0.12710690200E+03  0.13924364211E+03  0.46999998093E+01 0.  1.
       24    1    4    4    0    0  0.38461114457E+03 -0.38234392123E+03  0.41093999925E+03  0.68509577279E+03  0.79824358925E+02 0.  0.
        5    1    4    4  502    0  0.18677382628E+03 -0.19024309530E+03  0.33809616128E+03  0.43059029455E+03  0.46999998093E+01 0. -1.
</event>
<event>
11   0  0.2741000E-04  0.2509625E+04  0.7818609E-02  0.8054257E-01
       -2   -1    0    0    0  501  0.00000000000E+00  0.00000000000E+00  0.78962840012E+03  0.78962840012E+03  0.00000000000E+00 0.  1.
        2   -1    0    0  501    0  0.00000000000E+00  0.00000000000E+00 -0.19940444545E+04  0.19940444545E+04  0.00000000000E+00 0. -1.
  9900113    2    1    2    0    0  0.00000000000E+00  0.00000000000E+00 -0.12044160543E+04  0.27836728546E+04  0.25096247786E+04 0.  0.
        6    2    3    3  502    0  0.61752386895E+03  0.37587182885E+03 -0.75460451898E+03  0.10588697146E+04  0.17076806489E+03 0.  0.
 -8000001    2    3    3    0  502 -0.61752386895E+03 -0.37587182885E+03 -0.44981153536E+03  0.17248031400E+04  0.15000000313E+04 0.  0.
       -6    2    5    5    0  502 -0.41118435424E+03 -0.62807356484E+02 -0.97135671299E+03  0.10704181375E+04  0.17100815170E+03 0.  0.
       25    1    5    5    0    0 -0.20633951470E+03 -0.31306447237E+03  0.52154517764E+03  0.65438500250E+03  0.12500000000E+03 0.  0.
      -24    1    6    6    0    0 -0.19104162835E+03 -0.21029039009E+02 -0.61681763189E+03  0.65098006385E+03  0.79824358925E+02 0. -1.
       -5    1    6    6    0  502 -0.22014272589E+03 -0.41778317476E+02 -0.35453908111E+03  0.41943807362E+03  0.46999998093E+01 0.  1.
       24    1    4    4    0    0  0.15168273776E+03  0.13157885370E+03 -0.19912194359E+03  0.29384030420E+03  0.79824358925E+02 0. -1.
        5    1    4    4  502    0  0.46584113119E+03  0.24429297515E+03 -0.55548257539E+03  0.76502941040E+03  0.46999998093E+01 0. -1.
</event>
<event>
11   0  0.2741000E-04  0.2505481E+04  0.7818609E-02  0.8055679E-01
        2   -1    0    0  501    0  0.00000000000E+00  0.00000000000E+00  0.15588765080E+04  0.15588765080E+04  0.00000000000E+00 0. -1.
       -2   -1    0    0    0  501  0.00000000000E+00  0.00000000000E+00 -0.10067241568E+04  0.10067241568E+04  0.00000000000E+00 0.  1.
  9900113    2    1    2    0    0 -0.56843418861E-13  0.00000000000E+00  0.55215235122E+03  0.25656006648E+04  0.25054809024E+04 0.  0.
       -6    2    3    3    0  502  0.28547731266E+03  0.25702473782E+03  0.88595314995E+03  0.98162271928E+03  0.17638357976E+03 0.  0.
  8000001    2    3    3  502    0 -0.28547731266E+03 -0.25702473782E+03 -0.33380079873E+03  0.15839779455E+04  0.15000013822E+04 0.  0.
        6    2    5    5  502    0  0.53548660139E+03 -0.28845677305E+03 -0.40388059486E+03  0.75000798272E+03  0.17157863810E+03 0.  0.
       25    1    5    5    0    0 -0.82096391404E+03  0.31432035227E+02  0.70079796129E+02  0.83396996278E+03  0.12500000000E+03 0.  0.
       24    1    6    6    0    0  0.44423075853E+03 -0.23340879483E+03 -0.39378862474E+03  0.64285460376E+03  0.79824358925E+02 0.  0.
        5    1    6    6  502    0  0.91255842858E+02 -0.55047978222E+02 -0.10091970119E+02  0.10715337895E+03  0.46999998093E+01 0. -1.
      -24    1    4    4    0    0  0.24977817670E+03  0.13666848621E+03  0.58454814598E+03  0.65508463264E+03  0.79824358925E+02 0.  0.
       -5    1    4    4    0  502  0.35699135963E+02  0.12035625161E+03  0.30140500397E+03  0.32653808664E+03  0.46999998093E+01 0.  1.
</event>
<event>
11   0  0.2741000E-04  0.2495883E+04  0.7818609E-02  0.8058982E-01
        1   -1    0    0  501    0  0.00000000000E+00  0.00000000000E+00  0.42089604441E+04  0.42089604441E+04  0.00000000000E+00 0. -1.
       -1   -1    0    0    0  501  0.00000000000E+00  0.00000000000E+00 -0.37001026017E+03  0.37001026017E+03  0.00000000000E+00 0.  1.
  9900113    2    1    2    0    0  0.00000000000E+00  0.00000000000E+00  0.38389501839E+04  0.45789707043E+04  0.24958834500E+04 0.  0.
        6    2    3    3  502    0  0.46693055142E+03 -0.54733278787E+03  0.67415748959E+03  0.10035672468E+04  0.18724736990E+03 0.  0.
 -8000001    2    3    3    0  502 -0.46693055142E+03  0.54733278787E+03  0.31647926943E+04  0.35754034575E+04  0.14999999217E+04 0.  0.
       -6    2    5    5    0  502 -0.99569496980E+03  0.23657951293E+03  0.19627199564E+04  0.22201310586E+04  0.17127157107E+03 0.  0.
       25    1    5    5    0    0  0.52876441839E+03  0.31075327494E+03  0.12020727379E+04  0.13552723989E+04  0.12500000000E+03 0.  0.
      -24    1    6    6    0    0 -0.32727164684E+03  0.61038488961E+02  0.55898584900E+03  0.65549182727E+03  0.79824358925E+02 0. -1.
       -5    1    6    6    0  502 -0.66842332296E+03  0.17554102396E+03  0.14037341074E+04  0.15646392313E+04  0.46999998093E+01 0.  1.
       24    1    4    4    0    0  0.21037436176E+03 -0.36437874981E+03  0.39133176961E+03  0.58012216608E+03  0.79824358925E+02 0. -1.
        5    1    4    4  502    0  0.25655618965E+03 -0.18295403806E+03  0.28282571999E+03  0.42344508071E+03  0.46999998093E+01 0. -1.
</event>
<event>
11   0  0.2741000E-04  0.2375479E+04  0.7818609E-02  0.8101779E-01
       -2   -1    0    0    0  501  0.00000000000E+00  0.00000000000E+00  0.10476720286E+04  0.10476720286E+04  0.00000000000E+00 0.  1.
        2   -1    0    0  501    0  0.00000000000E+00  0.00000000000E+00 -0.13465326335E+04  0.13465326335E+04  0.00000000000E+00 0. -1.
  9900113    2    1    2    0    0 -0.11368683772E-12 -0.56843418861E-13 -0.29886060491E+03  0.23942046621E+04  0.23754785419E+04 0.  0.
       -6    2    3    3    0  502 -0.31908263893E+03 -0.24856337851E+03  0.48453408128E+03  0.65428990320E+03  0.17240799838E+03 0.  0.
  8000001    2    3    3  502    0  0.31908263893E+03  0.24856337851E+03 -0.78339468619E+03  0.17399147589E+04  0.14999995501E+04 0.  0.
        6    2    5    5  502    0  0.86501935958E+03  0.38019928177E+03 -0.36022165095E+03  0.10257191753E+04  0.17184354045E+03 0.  0.
       25    1    5    5    0    0 -0.54593672065E+03 -0.13163590326E+03 -0.42317303524E+03  0.71419558367E+03  0.12500000000E+03 0.  0.
       24    1    6    6    0    0  0.68148211312E+03  0.33787901434E+03 -0.33737585238E+03  0.83592732512E+03  0.79824358925E+02 0.  0.
        5    1    6    6  502    0  0.18353724646E+03  0.42320267427E+02 -0.22845798579E+02  0.18979185015E+03  0.46999998093E+01 0. -1.
      -24    1    4    4    0    0 -0.98245847141E+02 -0.87912000582E+02  0.25291618867E+03  0.29617443019E+03  0.79824358925E+02 0.  1.
       -5    1    4    4    0  502 -0.22083679178E+03 -0.16065137792E+03  0.23161789261E+03  0.35811547301E+03  0.46999998093E+01 0.  1.
</event>
<event>
11   0  0.2741000E-04  0.2481484E+04  0.7818609E-02  0.8063967E-01
       -1   -1    0    0    0  501  0.00000000000E+00  0.00000000000E+00  0.14567687727E+04  0.14567687727E+04  0.00000000000E+00 0.  1.
        1   -1    0    0  501    0  0.00000000000E+00  0.00000000000E+00 -0.10567499142E+04  0.10567499142E+04  0.00000000000E+00 0. -1.
  9900113    2    1    2    0    0  0.35527136788E-14 -0.11368683772E-12  0.40001885858E+03  0.25135186869E+04  0.24814836494E+04 0.  0.
        6    2    3    3  502    0 -0.23198514079E+02  0.41168972578E+03  0.79251197424E+03  0.90912577654E+03  0.16854627522E+03 0.  0.
 -8000001    2    3    3    0  502  0.23198514079E+02 -0.41168972578E+03 -0.39249311567E+03  0.16043929104E+04  0.14999997212E+04 0.  0.
       -6    2    5    5    0  502  0.26760610332E+01 -0.59282640084E+03 -0.87656335836E+03  0.10722456883E+04  0.17290804479E+03 0.  0.
       25    1    5    5    0    0  0.20522453045E+02  0.18113667506E+03  0.48407024269E+03  0.53214722210E+03  0.12500000000E+03 0.  0.
      -24    1    6    6    0    0 -0.20793307022E+02 -0.57487478429E+03 -0.86089324869E+03  0.10384712288E+04  0.79824358925E+02 0.  0.
       -5    1    6    6    0  502  0.23469368055E+02 -0.17951616551E+02 -0.15670109669E+02  0.33774459418E+02  0.46999998093E+01 0.  1.
       24    1    4    4    0    0 -0.50412640303E+02  0.27494972614E+03  0.41523021126E+03  0.50687951510E+03  0.79824358925E+02 0.  0.
        5    1    4    4  502    0  0.27214126224E+02  0.13673999964E+03  0.37728176299E+03  0.40224626145E+03  0.46999998093E+01 0. -1.
</event>
<event>
11   0  0.2741000E-04  0.2499715E+04  0.7818609E-02  0.8057661E-01
        2   -1    0    0  501    0  0.00000000000E+00  0.00000000000E+00  0.20048368835E+04  0.20048368835E+04  0.00000000000E+00 0. -1.
       -2   -1    0    0    0  501  0.00000000000E+00  0.00000000000E+00 -0.77918721322E+03  0.77918721322E+03  0.00000000000E+00 0.  1.
  9900113    2    1    2    0    0 -0.28421709430E-13  0.28421709430E-13  0.12256496703E+04  0.27840240967E+04  0.24997145951E+04 0.  0.
        6    2    3    3  502    0  0.22283080156E+03  0.18151381854E+03 -0.42121594741E+03  0.53796792979E+03  0.17142283009E+03 0.  0.
 -8000001    2    3    3    0  502 -0.22283080156E+03 -0.18151381854E+03  0.16468656177E+04  0.22460561670E+04  0.15000003700E+04 0.  0.
       -6    2    5    5    0  502 -0.52088138187E+03 -0.71610095282E+03  0.10052704870E+04  0.13505748079E+04  0.17136385637E+03 0.  0.
       25    1    5    5    0    0  0.29805058030E+03  0.53458713427E+03  0.64159513074E+03  0.89548135902E+03  0.12500000000E+03 0.  0.
      -24    1    6    6    0    0 -0.52011095069E+03 -0.72189668444E+03  0.10019872941E+04  0.13423861925E+04  0.79824358925E+02 0.  0.
       -5    1    6    6    0  502 -0.77043117408E+00  0.57957316223E+01  0.32831929129E+01  0.81886154594E+01  0.46999998093E+01 0.  1.
       24    1    4    4    0    0  0.22439949851E+03  0.15072370442E+03 -0.42116854141E+03  0.50678164781E+03  0.79824358925E+02 0.  0.
        5    1    4    4  502    0 -0.15686969423E+01  0.30790114128E+02 -0.47406000190E-01  0.31186281979E+02  0.46999998093E+01 0. -1.
</event>
<event>
11   0  0.2741000E-04  0.2501728E+04  0.7818609E-02  0.8056969E-01
       -1   -1    0    0    0  501  0.00000000000E+00  0.00000000000E+00  0.11439257392E+04  0.11439257392E+04  0.00000000000E+00 0.  1.
        1   -1    0    0  501    0  0.00000000000E+00  0.00000000000E+00 -0.13677988480E+04  0.13677988480E+04  0.00000000000E+00 0. -1.
  9900113    2    1    2    0    0  0.00000000000E+00  0.00000000000E+00 -0.22387310871E+03  0.25117245872E+04  0.25017276497E+04 0.  0.
       -6    2    3    3    0  502  0.56306546615E+03  0.24854336788E+03  0.42235375399E+03  0.76632468730E+03  0.17336178345E+03 0.  0.
  8000001    2    3    3  502    0 -0.56306546615E+03 -0.24854336788E+03 -0.64622686270E+03  0.17453998999E+04  0.14999983759E+04 0.  0.
        6    2    5    5  502    0 -0.75593198995E+03  0.45566607728E+02  0.21547535227E+03  0.80632914589E+03  0.17386079177E+03 0.  0.
       25    1    5    5    0    0  0.19286652380E+03 -0.29410997561E+03 -0.86170221497E+03  0.93907075401E+03  0.12500000000E+03 0.  0.
       24    1    6    6    0    0 -0.50595835719E+03 -0.22345521734E+02  0.98551571692E+02  0.52208957288E+03  0.79824358925E+02 0.  1.
        5    1    6    6  502    0 -0.24997363276E+03  0.67912129462E+02  0.11692378058E+03  0.28423957301E+03  0.46999998093E+01 0. -1.
      -24    1    4    4    0    0  0.24525892539E+03  0.48402424886E+02  0.19882097799E+03  0.32923615352E+03  0.79824358925E+02 0. -1.
       -5    1    4    4    0  502  0.31780654076E+03  0.20014094299E+03  0.22353277600E+03  0.43708853378E+03  0.46999998093E+01 0.  1.
</event>
<event>
11   0  0.2741000E-04  0.2499455E+04  0.7818609E-02  0.8057751E-01
       -3   -1    0    0    0  501  0.00000000000E+00  0.00000000000E+00  0.92460710449E+03  0.92460710449E+03  0.00000000000E+00 0.  1.
        3   -1    0    0  501    0  0.00000000000E+00  0.00000000000E+00 -0.16891709356E+04  0.16891709356E+04  0.00000000000E+00 0. -1.
  9900113    2    1    2    0    0  0.00000000000E+00  0.11368683772E-12 -0.76456383108E+03  0.26137780400E+04  0.24994554989E+04 0.  0.
       -6    2    3    3    0  502 -0.35038268570E+03  0.63842825601E+03 -0.55835127094E+03  0.93363358649E+03  0.17192110852E+03 0.  0.
  8000001    2    3    3  502    0  0.35038268570E+03 -0.63842825601E+03 -0.20621256014E+03  0.16801444536E+04  0.15000010335E+04 0.  0.
        6    2    5    5  502    0 -0.46861206683E+03  0.78191999561E+02 -0.28874050929E+03  0.58163052204E+03  0.17091437764E+03 0.  0.
       25    1    5    5    0    0  0.81899475253E+03 -0.71662025557E+03  0.82527949155E+02  0.10985139315E+04  0.12500000000E+03 0.  0.
       24    1    6    6    0    0 -0.28008590650E+03  0.11003126023E+03 -0.15153192205E+03  0.34624968582E+03  0.79824358925E+02 0.  0.
        5    1    6    6  502    0 -0.18852616033E+03 -0.31839260674E+02 -0.13720858725E+03  0.23538083622E+03  0.46999998093E+01 0. -1.
      -24    1    4    4    0    0 -0.23969539613E+03  0.30479275292E+03 -0.27359694706E+03  0.48122730895E+03  0.79824358925E+02 0. -1.
       -5    1    4    4    0  502 -0.11068728956E+03  0.33363550309E+03 -0.28475432387E+03  0.45240627754E+03  0.46999998093E+01 0.  1.
</event>
<event>
11   0  0.2741000E-04  0.2505900E+04  0.7818609E-02  0.8055535E-01
        2   -1    0    0  501    0  0.00000000000E+00  0.00000000000E+00  0.20845804247E+04  0.20845804247E+04  0.00000000000E+00 0. -1.
       -2   -1    0    0    0  501  0.00000000000E+00  0.00000000000E+00 -0.75309316775E+03  0.75309316775E+03  0.00000000000E+00 0.  1.
  9900113    2    1    2    0    0 -0.56843418861E-13  0.00000000000E+00  0.13314872570E+04  0.28376735925E+04  0.25058996592E+04 0.  0.
        6    2    3    3  502    0 -0.37637152977E+03  0.66043601784E+03  0.18052772326E+03  0.79989724978E+03  0.17150536217E+03 0.  0.
 -8000001    2    3    3    0  502  0.37637152977E+03 -0.66043601784E+03  0.11509595337E+04  0.20377763427E+04  0.14999977709E+04 0.  0.
       -6    2    5    5    0  502 -0.48237164688E+03 -0.47254115003E+03  0.17634675220E+03  0.71935326999E+03  0.17433704671E+03 0.  0.
       25    1    5    5    0    0  0.85874317664E+03 -0.18789486781E+03  0.97461278153E+03  0.13184230727E+04  0.12500000000E+03 0.  0.
      -24    1    6    6    0    0 -0.27608379957E+03 -0.34448141690E+03  0.15869335207E+03  0.47586260543E+03  0.79824358925E+02 0.  0.
       -5    1    6    6    0  502 -0.20628784730E+03 -0.12805973313E+03  0.17653400127E+02  0.24349066456E+03  0.46999998093E+01 0.  1.
       24    1    4    4    0    0 -0.18033213165E+03  0.41905853797E+03  0.62866740595E+02  0.46739051264E+03  0.79824358925E+02 0.  0.
        5    1    4    4  502    0 -0.19603939812E+03  0.24137747987E+03  0.11766098267E+03  0.33250673714E+03  0.46999998093E+01 0. -1.
</event>
<event>
11   0  0.2741000E-04  0.2509869E+04  0.7818609E-02  0.8054173E-01
        1   -1    0    0  501    0  0.00000000000E+00  0.00000000000E+00  0.17390877802E+04  0.17390877802E+04  0.00000000000E+00 0. -1.
       -1   -1    0    0    0  501  0.00000000000E+00  0.00000000000E+00 -0.90556688178E+03  0.90556688178E+03  0.00000000000E+00 0.  1.
  9900113    2    1    2    0    0  0.11368683772E-12  0.28421709430E-13  0.83352089839E+03  0.26446546620E+04  0.25098687601E+04 0.  0.
       -6    2    3    3    0  502 -0.68826938125E+03 -0.66123419447E+02  0.68138159656E+03  0.98596985088E+03  0.17253584828E+03 0.  0.
  8000001    2    3    3  502    0  0.68826938125E+03  0.66123419447E+02  0.15213930183E+03  0.16586848111E+04  0.15000006292E+04 0.  0.
        6    2    5    5  502    0 -0.84831045709E+02 -0.25635850501E+03 -0.49707282033E+03  0.59154834308E+03  0.17300885548E+03 0.  0.
       25    1    5    5    0    0  0.77310042696E+03  0.32248192446E+03  0.64921212217E+03  0.10671364680E+04  0.12500000000E+03 0.  0.
       24    1    6    6    0    0 -0.11781204164E+02 -0.73944865696E+02 -0.26931751063E+03  0.29070687942E+03  0.79824358925E+02 0.  1.
        5    1    6    6  502    0 -0.73049841545E+02 -0.18241363931E+03 -0.22775530971E+03  0.30084146366E+03  0.46999998093E+01 0. -1.
      -24    1    4    4    0    0 -0.58118627134E+03 -0.50110271226E+02  0.48986949706E+03  0.76591943029E+03  0.79824358925E+02 0.  0.
       -5    1    4    4    0  502 -0.10708310991E+03 -0.16013148222E+02  0.19151209951E+03  0.22005042058E+03  0.46999998093E+01 0.  1.
</event>
<event>
11   0  0.2741000E-04  0.2507450E+04  0.7818609E-02  0.8055003E-01
       -2   -1    0    0    0  501  0.00000000000E+00  0.00000000000E+00  0.82652735385E+03  0.82652735385E+03  0.00000000000E+00 0.  1.
        2   -1    0    0  501    0  0.00000000000E+00  0.00000000000E+00 -0.19017226043E+04  0.19017226043E+04  0.00000000000E+00 0. -1.
  9900113    2    1    2    0    0 -0.71054273576E-14  0.28421709430E-13 -0.10751952504E+04  0.27282499581E+04  0.25074495025E+04 0.  0.
       -6    2    3    3    0  502 -0.59481851892E+02 -0.10455830680E+03  0.50241920211E+03  0.54803507579E+03  0.18288482556E+03 0.  0.
  8000001    2    3    3  502    0  0.59481851892E+02  0.10455830680E+03 -0.15776144525E+04  0.21802148823E+04  0.14999996807E+04 0.  0.
        6    2    5    5  502    0 -0.23063200280E+03 -0.62828322244E+03 -0.57710140807E+03  0.90042032545E+03  0.17256824441E+03 0.  0.
       25    1    5    5    0    0  0.29011385470E+03  0.73284152924E+03 -0.10005130445E+04  0.12797945569E+04  0.12500000000E+03 0.  0.
       24    1    6    6    0    0 -0.22580579751E+03 -0.55894167102E+03 -0.45364524347E+03  0.75866328829E+03  0.79824358925E+02 0.  0.
        5    1    6    6  502    0 -0.48262052944E+01 -0.69341551412E+02 -0.12345616460E+03  0.14175703716E+03  0.46999998093E+01 0. -1.
      -24    1    4    4    0    0  0.11919012688E+02 -0.16148560021E+01  0.29337875357E+03  0.30428225704E+03  0.79824358925E+02 0.  1.
       -5    1    4    4    0  502 -0.71400864579E+02 -0.10294345080E+03  0.20904044854E+03  0.24375281875E+03  0.46999998093E+01 0.  1.
</event>
<event>
11   0  0.2741000E-04  0.2500489E+04  0.7818609E-02  0.8057395E-01
        2   -1    0    0  501    0  0.00000000000E+00  0.00000000000E+00  0.20170348448E+04  0.20170348448E+04  0.00000000000E+00 0. -1.
       -2   -1    0    0    0  501  0.00000000000E+00  0.00000000000E+00 -0.77495493472E+03  0.77495493472E+03  0.00000000000E+00 0.  1.
  9900113    2    1    2    0    0  0.11368683772E-12  0.71054273576E-13  0.12420799101E+04  0.27919897795E+04  0.25004888374E+04 0.  0.
       -6    2    3    3    0  502  0.60864001599E+03 -0.19854631294E+02  0.95844319509E+03  0.11484329672E+04  0.17160433091E+03 0.  0.
  8000001    2    3    3  502    0 -0.60864001599E+03  0.19854631294E+02  0.28363671502E+03  0.16435568124E+04  0.14999974447E+04 0.  0.
        6    2    5    5  502    0 -0.33590262338E+03 -0.71149215558E+03  0.28356553311E+03  0.85306404641E+03  0.16809876816E+03 0.  0.
       25    1    5    5    0    0 -0.27273739261E+03  0.73134678688E+03  0.71181913938E-01  0.79049276598E+03  0.12500000000E+03 0.  0.
       24    1    6    6    0    0 -0.19620189435E+03 -0.31164398291E+03  0.17685235143E+03  0.41625213262E+03  0.79824358925E+02 0.  0.
        5    1    6    6  502    0 -0.13970072903E+03 -0.39984817267E+03  0.10671318168E+03  0.43681191378E+03  0.46999998093E+01 0. -1.
      -24    1    4    4    0    0  0.22935825117E+03  0.47142034597E+02  0.36426386191E+03  0.44032677432E+03  0.79824358925E+02 0. -1.
       -5    1    4    4    0  502  0.37928176482E+03 -0.66996665891E+02  0.59417933317E+03  0.70810619284E+03  0.46999998093E+01 0.  1.
</event>
<event>
11   0  0.2741000E-04  0.2465045E+04  0.7818609E-02  0.8069701E-01
        1   -1    0    0  501    0  0.00000000000E+00  0.00000000000E+00  0.18453561588E+04  0.18453561588E+04  0.00000000000E+00 0. -1.
       -1   -1    0    0    0  501  0.00000000000E+00  0.00000000000E+00 -0.82320780565E+03  0.82320780565E+03  0.00000000000E+00 0.  1.
  9900113    2    1    2    0    0  0.00000000000E+00  0.00000000000E+00  0.10221483531E+04  0.26685639644E+04  0.24650449035E+04 0.  0.
        6    2    3    3  502    0  0.54792342804E+03  0.37929055606E+03 -0.77624067823E+02  0.69281611160E+03  0.17287932116E+03 0.  0.
 -8000001    2    3    3    0  502 -0.54792342804E+03 -0.37929055606E+03  0.10997724210E+04  0.19757478528E+04  0.14999995971E+04 0.  0.
       -6    2    5    5    0  502 -0.20186766825E+03 -0.84291152826E+03  0.10635130280E+04  0.13827565052E+04  0.17235194273E+03 0.  0.
       25    1    5    5    0    0 -0.34605575979E+03  0.46362097220E+03  0.36259392992E+02  0.59299134760E+03  0.12500000000E+03 0.  0.
      -24    1    6    6    0    0 -0.18558699771E+02 -0.27237001672E+03  0.34253977254E+03  0.44523620180E+03  0.79824358925E+02 0. -1.
       -5    1    6    6    0  502 -0.18330896848E+03 -0.57054151154E+03  0.72097325543E+03  0.93752030344E+03  0.46999998093E+01 0.  1.
       24    1    4    4    0    0  0.35713990894E+03  0.30732809421E+03 -0.10162089241E+02  0.47799023879E+03  0.79824358925E+02 0.  0.
        5    1    4    4  502    0  0.19078351910E+03  0.71962461847E+02 -0.67461978582E+02  0.21482587281E+03  0.46999998093E+01 0. -1.
</event>
</LesHouchesEvents>
