<LesHouchesEvents version="1.0">
<!--
file generated with powheg-hvq version 0.0
Input file powheginput.dat contained:
randomseed 942 ! uncomment to set the random seed to a value of your choice.
                  ! It generates the call RM48IN(352345,0,0) (see the RM48 manual).
                  ! THIS MAY ONLY AFFECTS THE GENERATION OF POWHEG EVENTS!
                  ! If POWHEG is interfaced to a shower MC, refer to the shower MC
                  ! documentation to set its seed.
 
!Heavy flavour production parameters
 
maxev 100       ! number of events to be generated
!maxev 1000000  ! number of events to be generated
ih1   1        ! hadron 1
ih2   1        ! hadron 2
ndns1 133      ! pdf for hadron 1
ndns2 133      ! pdf for hadron 2
ebeam1 7000    ! energy of beam 1
ebeam2 7000    ! energy of beam 2
qmass  171     ! mass of heavy quark in GeV
facscfact 1    ! factorization scale factor: mufact=muref*facscfact
renscfact 1    ! renormalization scale factor: muren=muref*renscfact
bbscalevar 1    ! use variable re. and fct. scales
 
! Parameters to allow-disallow use of stored data
use-old-grid 0    ! if 0 use old grid if file pwggrids.dat is present (# 0: regenerate)
use-old-ubound 0  ! if 0 use norm of upper bounding function stored in pwgubound.dat, if present; #
 
!ncall1 10000   ! number of calls for initializing the integration grid
!itmx1 5        ! number of iterations for initializing the integration grid
!ncall2 100000  ! number of calls for computing the integral and finding upper bound
!itmx2 5        ! number of iterations for computing the integral and finding upper bound
!foldx   1      ! number of folds on x integration
!foldy   1      ! number of folds on y integration
!foldphi 1      ! number of folds on phi integration
!nubound 100000  ! number of bbarra calls to setup norm of upper bounding function
!iymax 1        ! <= 10, normalization of upper bounding function in iunorm X iunorm square in y, lo
!ixmax 1        ! <= 10, normalization of upper bounding function in iunorm X iunorm square in y, lo
!xupbound 2      ! increase upper bound for radiation generation
 
ncall1 20000   ! number of calls for initializing the integration grid
itmx1 5        ! number of iterations for initializing the integration grid
ncall2 200000  ! number of calls for computing the integral and finding upper bound
itmx2 5        ! number of iterations for computing the integral and finding upper bound
foldx   1      ! number of folds on x integration
foldy   1      ! number of folds on y integration
foldphi 1      ! number of folds on phi integration
nubound 100000  ! number of bbarra calls to setup norm of upper bounding function
iymax 1        ! <= 10, normalization of upper bounding function in iunorm X iunorm square in y, log
ixmax 1        ! <= 10, normalization of upper bounding function in iunorm X iunorm square in y, log
xupbound 2      ! increase upper bound for radiation generation
End of powheginput.dat content
 Random number generator initialized with:          942             0             0
!-->
<init>
     2212     2212  7.00000E+03  7.00000E+03     -1     -1     -1     -1      3      1
  8.00334E+02  0.00000E+00  0.00000E+00   1006
</init>
<event>
      5   1006  1.00000E+00  1.90417E+01  0.00000E+00  0.00000E+00
      21    -1     0     0   134   135  0.000000000E+00  0.000000000E+00  2.693639711E+02  2.693639711E+02  0.000000000E+00  0.00000E+00  9.000E+00
      21    -1     0     0   132   133  0.000000000E+00  0.000000000E+00 -5.818116662E+02  5.818116662E+02  0.000000000E+00  0.00000E+00  9.000E+00
       6     1     1     2   132     0  5.649633545E+01 -1.409096557E+02 -3.628291203E+02  4.288745010E+02  1.710000000E+02  0.00000E+00  9.000E+00
      -6     1     1     2     0   135 -4.477951077E+01  1.559196728E+02  1.766816856E+02  2.945735341E+02  1.710000000E+02  0.00000E+00  9.000E+00
      21     1     1     2   134   133 -1.171682467E+01 -1.501001705E+01 -1.263002604E+02  1.277276022E+02  0.000000000E+00  0.00000E+00  9.000E+00
</event>
<event>
      5   1006  1.00000E+00  8.50665E+01  0.00000E+00  0.00000E+00
       2    -1     0     0   133     0  0.000000000E+00  0.000000000E+00  4.787391958E+02  4.787391958E+02  0.000000000E+00  0.00000E+00  9.000E+00
      21    -1     0     0   132   133  0.000000000E+00  0.000000000E+00 -1.033006895E+03  1.033006895E+03  0.000000000E+00  0.00000E+00  9.000E+00
       6     1     1     2   132     0  1.043157482E+02 -1.000299312E+02 -4.505538093E+02  5.031177770E+02  1.710000000E+02  0.00000E+00  9.000E+00
      -6     1     1     2     0   142 -1.728148005E+02  1.504698493E+02 -5.147808256E+02  5.888517888E+02  1.710000000E+02  0.00000E+00  9.000E+00
       2     1     1     2   142     0  6.849905229E+01 -5.043991813E+01  4.110669356E+02  4.197765251E+02  0.000000000E+00  0.00000E+00  9.000E+00
</event>
<event>
      5   1006  1.00000E+00  3.29243E+01  0.00000E+00  0.00000E+00
      -2    -1     0     0     0   142  0.000000000E+00  0.000000000E+00  1.946878926E+02  1.946878926E+02  0.000000000E+00  0.00000E+00  9.000E+00
       2    -1     0     0   133     0  0.000000000E+00  0.000000000E+00 -4.009760153E+02  4.009760153E+02  0.000000000E+00  0.00000E+00  9.000E+00
       6     1     1     2   132     0 -2.220839364E+01  9.685183578E+00 -1.693379851E+01  1.735360742E+02  1.710000000E+02  0.00000E+00  9.000E+00
      -6     1     1     2     0   142 -1.045586119E+01 -1.381510095E+01  5.119326902E+01  1.793374831E+02  1.710000000E+02  0.00000E+00  9.000E+00
      21     1     1     2   133   132  3.266425482E+01  4.129917372E+00 -2.405475932E+02  2.427903506E+02  0.000000000E+00  0.00000E+00  9.000E+00
</event>
<event>
      5   1006  1.00000E+00  2.41289E+01  0.00000E+00  0.00000E+00
      21    -1     0     0   134   135  0.000000000E+00  0.000000000E+00  2.461029732E+02  2.461029732E+02  0.000000000E+00  0.00000E+00  9.000E+00
      21    -1     0     0   133   134  0.000000000E+00  0.000000000E+00 -7.976393741E+02  7.976393741E+02  0.000000000E+00  0.00000E+00  9.000E+00
       6     1     1     2   132     0  3.380875250E+02  1.926168526E+02 -1.959665945E+02  4.680259957E+02  1.710000000E+02  0.00000E+00  9.000E+00
      -6     1     1     2     0   135 -3.287588850E+02 -2.148695485E+02 -3.411313105E+02  5.475973871E+02  1.710000000E+02  0.00000E+00  9.000E+00
      21     1     1     2   133   132 -9.328640094E+00  2.225269589E+01 -1.443849593E+01  2.811896451E+01  0.000000000E+00  0.00000E+00  9.000E+00
</event>
<event>
      5   1006  1.00000E+00  1.24650E+02  0.00000E+00  0.00000E+00
      21    -1     0     0   134   135  0.000000000E+00  0.000000000E+00  2.517146825E+02  2.517146825E+02  0.000000000E+00  0.00000E+00  9.000E+00
      21    -1     0     0   132   133  0.000000000E+00  0.000000000E+00 -4.165505525E+02  4.165505525E+02  0.000000000E+00  0.00000E+00  9.000E+00
       6     1     1     2   132     0 -2.220564434E+01 -8.754634025E+01 -1.792912232E+02  2.637115755E+02  1.710000000E+02  0.00000E+00  9.000E+00
      -6     1     1     2     0   135  1.311062305E+02  1.481950454E+02  6.591887938E+01  2.696978194E+02  1.710000000E+02  0.00000E+00  9.000E+00
      21     1     1     2   134   133 -1.089005861E+02 -6.064870512E+01 -5.146352617E+01  1.348558401E+02  0.000000000E+00  0.00000E+00  9.000E+00
</event>
<event>
      5   1006  1.00000E+00  5.17211E+01  0.00000E+00  0.00000E+00
      21    -1     0     0   132   133  0.000000000E+00  0.000000000E+00  1.017647392E+03  1.017647392E+03  0.000000000E+00  0.00000E+00  9.000E+00
      -1    -1     0     0     0   142  0.000000000E+00  0.000000000E+00 -8.671545975E+02  8.671545975E+02  0.000000000E+00  0.00000E+00  9.000E+00
       6     1     1     2   132     0 -1.851591130E+01  1.233256008E+01  6.283116852E+02  6.515454741E+02  1.710000000E+02  0.00000E+00  9.000E+00
      -6     1     1     2     0   142 -3.298235855E+01 -1.712855513E+01  3.566071834E+02  3.972290354E+02  1.710000000E+02  0.00000E+00  9.000E+00
      -1     1     1     2     0   133  5.149826986E+01  4.795995052E+00 -8.344260743E+02  8.360274797E+02  0.000000000E+00  0.00000E+00  9.000E+00
</event>
<event>
      5   1006  1.00000E+00  2.53484E+01  0.00000E+00  0.00000E+00
      21    -1     0     0   134   135  0.000000000E+00  0.000000000E+00  3.319692894E+02  3.319692894E+02  0.000000000E+00  0.00000E+00  9.000E+00
      21    -1     0     0   132   133  0.000000000E+00  0.000000000E+00 -2.859604779E+02  2.859604779E+02  0.000000000E+00  0.00000E+00  9.000E+00
       6     1     1     2   132     0 -1.092539314E+01  3.983114000E+01 -1.865096784E+02  2.563839778E+02  1.710000000E+02  0.00000E+00  9.000E+00
      -6     1     1     2     0   135  3.450253664E+01 -4.914033608E+01  2.645637208E+02  3.206870126E+02  1.710000000E+02  0.00000E+00  9.000E+00
      21     1     1     2   134   133 -2.357714350E+01  9.309196076E+00 -3.204523094E+01  4.085877695E+01  0.000000000E+00  0.00000E+00  9.000E+00
</event>
<event>
      5   1006  1.00000E+00  1.42656E+02  0.00000E+00  0.00000E+00
      -2    -1     0     0     0   142  0.000000000E+00  0.000000000E+00  2.423563235E+01  2.423563235E+01  0.000000000E+00  0.00000E+00  9.000E+00
       2    -1     0     0   132     0  0.000000000E+00  0.000000000E+00 -3.498466782E+03  3.498466782E+03  0.000000000E+00  0.00000E+00  9.000E+00
       6     1     1     2   132     0  1.088146275E+02  3.115321079E+01 -1.782361032E+03  1.794119002E+03  1.710000000E+02  0.00000E+00  9.000E+00
      -6     1     1     2     0   143 -9.722608334E+00  7.146938745E+01 -1.264156944E+03  1.277707393E+03  1.710000000E+02  0.00000E+00  9.000E+00
      21     1     1     2   143   142 -9.909201917E+01 -1.026225982E+02 -4.277131735E+02  4.508760192E+02  0.000000000E+00  0.00000E+00  9.000E+00
</event>
<event>
      4   1006  1.00000E+00  7.92896E-01  0.00000E+00  0.00000E+00
       1    -1     0     0   132     0  0.000000000E+00  0.000000000E+00  1.041503483E+03  1.041503483E+03  0.000000000E+00  0.00000E+00  9.000E+00
      -1    -1     0     0     0   142  0.000000000E+00  0.000000000E+00 -3.531910571E+01  3.531910571E+01  0.000000000E+00  0.00000E+00  9.000E+00
       6     1     1     2   132     0  1.637650490E+01 -3.242101033E+01  7.245733328E+02  7.453635532E+02  1.710000000E+02  0.00000E+00  9.000E+00
      -6     1     1     2     0   142 -1.637650490E+01  3.242101033E+01  2.816110442E+02  3.314590352E+02  1.710000000E+02  0.00000E+00  9.000E+00
</event>
<event>
      5   1006  1.00000E+00  1.54620E+02  0.00000E+00  0.00000E+00
      21    -1     0     0   142   143  0.000000000E+00  0.000000000E+00  6.103271590E+02  6.103271590E+02  0.000000000E+00  0.00000E+00  9.000E+00
       2    -1     0     0   132     0  0.000000000E+00  0.000000000E+00 -9.571119558E+02  9.571119558E+02  0.000000000E+00  0.00000E+00  9.000E+00
       6     1     1     2   132     0  3.869622175E+01 -3.087215805E+01  1.066596790E+02  2.075277688E+02  1.710000000E+02  0.00000E+00  9.000E+00
      -6     1     1     2     0   143  6.052592618E+00  1.788750979E+02  4.120651311E+02  4.806990814E+02  1.710000000E+02  0.00000E+00  9.000E+00
       2     1     1     2   142     0 -4.474881437E+01 -1.480029399E+02 -8.655096069E+02  8.792122646E+02  0.000000000E+00  0.00000E+00  9.000E+00
</event>
<event>
      5   1006  1.00000E+00  3.02075E+01  0.00000E+00  0.00000E+00
      21    -1     0     0   132   133  0.000000000E+00  0.000000000E+00  8.670900182E+01  8.670900182E+01  0.000000000E+00  0.00000E+00  9.000E+00
      21    -1     0     0   134   135  0.000000000E+00  0.000000000E+00 -5.379210274E+02  5.379210274E+02  0.000000000E+00  0.00000E+00  9.000E+00
       6     1     1     2   132     0 -8.611654143E+01  5.197357100E+01 -2.726946585E+02  3.372249806E+02  1.710000000E+02  0.00000E+00  9.000E+00
      -6     1     1     2     0   135  6.826518173E+01 -2.760507111E+01 -1.774178677E+02  2.571775160E+02  1.710000000E+02  0.00000E+00  9.000E+00
      21     1     1     2   134   133  1.785135970E+01 -2.436849989E+01 -1.099499504E+00  3.022753263E+01  0.000000000E+00  0.00000E+00  9.000E+00
</event>
<event>
      5   1006  1.00000E+00  2.94027E+02  0.00000E+00  0.00000E+00
      21    -1     0     0   132   133  0.000000000E+00  0.000000000E+00  3.764872574E+02  3.764872574E+02  0.000000000E+00  0.00000E+00  9.000E+00
      21    -1     0     0   134   135  0.000000000E+00  0.000000000E+00 -1.040735963E+03  1.040735963E+03  0.000000000E+00  0.00000E+00  9.000E+00
       6     1     1     2   132     0 -2.265721769E+02  9.327469061E+00 -4.086579551E+02  4.976587961E+02  1.710000000E+02  0.00000E+00  9.000E+00
      -6     1     1     2     0   135  1.762323405E+02 -2.990130481E+02 -4.294000451E+02  5.780069545E+02  1.710000000E+02  0.00000E+00  9.000E+00
      21     1     1     2   134   133  5.033983641E+01  2.896855791E+02  1.738092950E+02  3.415574694E+02  0.000000000E+00  0.00000E+00  9.000E+00
</event>
<event>
      5   1006  1.00000E+00  1.04367E+02  0.00000E+00  0.00000E+00
      21    -1     0     0   132   133  0.000000000E+00  0.000000000E+00  5.176342298E+02  5.176342298E+02  0.000000000E+00  0.00000E+00  9.000E+00
      21    -1     0     0   134   135  0.000000000E+00  0.000000000E+00 -8.314264282E+02  8.314264282E+02  0.000000000E+00  0.00000E+00  9.000E+00
       6     1     1     2   132     0 -1.322244053E+02  6.106569007E+01  4.458027651E+02  4.991927656E+02  1.710000000E+02  0.00000E+00  9.000E+00
      -6     1     1     2     0   135  1.102542004E+02 -1.630937969E+02 -4.178304789E+02  4.925229785E+02  1.710000000E+02  0.00000E+00  9.000E+00
      21     1     1     2   134   133  2.197020488E+01  1.020281069E+02 -3.417644846E+02  3.573449138E+02  0.000000000E+00  0.00000E+00  9.000E+00
</event>
<event>
      5   1006  1.00000E+00  9.13129E+01  0.00000E+00  0.00000E+00
      21    -1     0     0   132   133  0.000000000E+00  0.000000000E+00  1.197551510E+03  1.197551510E+03  0.000000000E+00  0.00000E+00  9.000E+00
      21    -1     0     0   134   135  0.000000000E+00  0.000000000E+00 -1.109483679E+02  1.109483679E+02  0.000000000E+00  0.00000E+00  9.000E+00
       6     1     1     2   132     0 -3.132835584E+01 -9.219665393E+01  9.835795846E+01  2.199931291E+02  1.710000000E+02  0.00000E+00  9.000E+00
      -6     1     1     2     0   135  8.839129358E+01  1.634838754E+02  2.909998329E+02  3.853075409E+02  1.710000000E+02  0.00000E+00  9.000E+00
      21     1     1     2   134   133 -5.706293774E+01 -7.128722146E+01  6.972453507E+02  7.031992078E+02  0.000000000E+00  0.00000E+00  9.000E+00
</event>
<event>
      5   1006  1.00000E+00  5.84318E+02  0.00000E+00  0.00000E+00
      21    -1     0     0   133   134  0.000000000E+00  0.000000000E+00  1.096651510E+03  1.096651510E+03  0.000000000E+00  0.00000E+00  9.000E+00
      21    -1     0     0   134   135  0.000000000E+00  0.000000000E+00 -5.553113025E+02  5.553113025E+02  0.000000000E+00  0.00000E+00  9.000E+00
       6     1     1     2   132     0 -9.345427539E+01  2.616281407E+02 -1.013258716E+02  3.416005238E+02  1.710000000E+02  0.00000E+00  9.000E+00
      -6     1     1     2     0   135 -4.283054554E+02  1.419140883E+00  2.762342008E+01  4.620082579E+02  1.710000000E+02  0.00000E+00  9.000E+00
      21     1     1     2   133   132  5.217597308E+02 -2.630472816E+02  6.150426585E+02  8.483540303E+02  0.000000000E+00  0.00000E+00  9.000E+00
</event>
<event>
      5   1006  1.00000E+00  1.23622E+02  0.00000E+00  0.00000E+00
       2    -1     0     0   132     0  0.000000000E+00  0.000000000E+00  6.788164035E+02  6.788164035E+02  0.000000000E+00  0.00000E+00  9.000E+00
      21    -1     0     0   142   143  0.000000000E+00  0.000000000E+00 -3.412468657E+02  3.412468657E+02  0.000000000E+00  0.00000E+00  9.000E+00
       6     1     1     2   132     0  1.823437091E+02 -8.616976266E+01 -1.315162196E+02  2.953167322E+02  1.710000000E+02  0.00000E+00  9.000E+00
      -6     1     1     2     0   143 -1.445099487E+02 -3.152065234E+01 -1.358126433E+01  2.264997297E+02  1.710000000E+02  0.00000E+00  9.000E+00
       2     1     1     2   142     0 -3.783376045E+01  1.176904150E+02  4.826670218E+02  4.982468074E+02  0.000000000E+00  0.00000E+00  9.000E+00
</event>
<event>
      5   1006  1.00000E+00  4.77399E+01  0.00000E+00  0.00000E+00
      21    -1     0     0   142   143  0.000000000E+00  0.000000000E+00  2.769307991E+02  2.769307991E+02  0.000000000E+00  0.00000E+00  9.000E+00
       1    -1     0     0   132     0  0.000000000E+00  0.000000000E+00 -1.640866803E+03  1.640866803E+03  0.000000000E+00  0.00000E+00  9.000E+00
       6     1     1     2   132     0  9.195437170E+00 -1.604738564E+01  2.320167029E+02  2.888162479E+02  1.710000000E+02  0.00000E+00  9.000E+00
      -6     1     1     2     0   143 -5.064347811E+01  3.973622608E+01 -5.059098891E+02  5.378936191E+02  1.710000000E+02  0.00000E+00  9.000E+00
       1     1     1     2   142     0  4.144804094E+01 -2.368884044E+01 -1.090042818E+03  1.091087735E+03  0.000000000E+00  0.00000E+00  9.000E+00
</event>
<event>
      5   1006  1.00000E+00  1.46132E+01  0.00000E+00  0.00000E+00
      21    -1     0     0   132   133  0.000000000E+00  0.000000000E+00  2.580200600E+02  2.580200600E+02  0.000000000E+00  0.00000E+00  9.000E+00
      21    -1     0     0   133   134  0.000000000E+00  0.000000000E+00 -3.926635599E+02  3.926635599E+02  0.000000000E+00  0.00000E+00  9.000E+00
       6     1     1     2   132     0 -8.915476027E+01 -1.028265663E+01  1.164830752E+02  2.255296236E+02  1.710000000E+02  0.00000E+00  9.000E+00
      -6     1     1     2     0   135  1.033202343E+02  1.387225734E+01 -2.878083415E+01  2.023285614E+02  1.710000000E+02  0.00000E+00  9.000E+00
      21     1     1     2   135   134 -1.416547403E+01 -3.589600710E+00 -2.223457410E+02  2.228254349E+02  0.000000000E+00  0.00000E+00  9.000E+00
</event>
<event>
      5   1006  1.00000E+00  4.20550E+01  0.00000E+00  0.00000E+00
      21    -1     0     0   132   133  0.000000000E+00  0.000000000E+00  1.571517693E+02  1.571517693E+02  0.000000000E+00  0.00000E+00  9.000E+00
      21    -1     0     0   134   135  0.000000000E+00  0.000000000E+00 -9.280804623E+02  9.280804623E+02  0.000000000E+00  0.00000E+00  9.000E+00
       6     1     1     2   132     0  4.712967605E+01 -8.920135099E+01  3.565598750E+01  2.017187072E+02  1.710000000E+02  0.00000E+00  9.000E+00
      -6     1     1     2     0   135 -7.474880269E+01  1.209158690E+02 -2.911046600E+02  3.663208347E+02  1.710000000E+02  0.00000E+00  9.000E+00
      21     1     1     2   134   133  2.761912664E+01 -3.171451802E+01 -5.154800204E+02  5.171926897E+02  0.000000000E+00  0.00000E+00  9.000E+00
</event>
<event>
      5   1006  1.00000E+00  2.46661E+02  0.00000E+00  0.00000E+00
      21    -1     0     0   132   133  0.000000000E+00  0.000000000E+00  2.729269263E+02  2.729269263E+02  0.000000000E+00  0.00000E+00  9.000E+00
       2    -1     0     0   133     0  0.000000000E+00  0.000000000E+00 -1.804412789E+03  1.804412789E+03  0.000000000E+00  0.00000E+00  9.000E+00
       6     1     1     2   132     0  2.179716405E+02  1.161210194E+02 -2.778799394E+02  4.092114220E+02  1.710000000E+02  0.00000E+00  9.000E+00
      -6     1     1     2     0   142 -1.781969081E+02  1.273116029E+02  9.767221661E+01  2.945220606E+02  1.710000000E+02  0.00000E+00  9.000E+00
       2     1     1     2   142     0 -3.977473238E+01 -2.434326223E+02 -1.351278140E+03  1.373606233E+03  0.000000000E+00  0.00000E+00  9.000E+00
</event>
<event>
      5   1006  1.00000E+00  6.68523E+01  0.00000E+00  0.00000E+00
      21    -1     0     0   132   133  0.000000000E+00  0.000000000E+00  2.631184528E+02  2.631184528E+02  0.000000000E+00  0.00000E+00  9.000E+00
      21    -1     0     0   133   134  0.000000000E+00  0.000000000E+00 -8.989887721E+02  8.989887721E+02  0.000000000E+00  0.00000E+00  9.000E+00
       6     1     1     2   132     0  1.620024021E+02  4.058485398E+01  1.791068448E+02  2.986840647E+02  1.710000000E+02  0.00000E+00  9.000E+00
      -6     1     1     2     0   135 -1.118802403E+02  3.653080042E+00 -7.111391428E+02  7.399259514E+02  1.710000000E+02  0.00000E+00  9.000E+00
      21     1     1     2   135   134 -5.012216171E+01 -4.423793403E+01 -1.038380213E+02  1.234972087E+02  0.000000000E+00  0.00000E+00  9.000E+00
</event>
<event>
      5   1006  1.00000E+00  3.48405E+00  0.00000E+00  0.00000E+00
      21    -1     0     0   133   134  0.000000000E+00  0.000000000E+00  1.268797914E+02  1.268797914E+02  0.000000000E+00  0.00000E+00  9.000E+00
      21    -1     0     0   134   135  0.000000000E+00  0.000000000E+00 -7.403998868E+02  7.403998868E+02  0.000000000E+00  0.00000E+00  9.000E+00
       6     1     1     2   132     0  8.079910133E+01 -6.687556616E+00  2.843057194E+01  1.913701011E+02  1.710000000E+02  0.00000E+00  9.000E+00
      -6     1     1     2     0   135 -8.093390712E+01  3.206120551E+00 -6.444299165E+02  6.716334520E+02  1.710000000E+02  0.00000E+00  9.000E+00
      21     1     1     2   133   132  1.348057832E-01  3.481436065E+00  2.479249164E+00  4.276125126E+00  0.000000000E+00  0.00000E+00  9.000E+00
</event>
<event>
      5   1006  1.00000E+00  5.35129E+02  0.00000E+00  0.00000E+00
      21    -1     0     0   142   143  0.000000000E+00  0.000000000E+00  3.283980426E+02  3.283980426E+02  0.000000000E+00  0.00000E+00  9.000E+00
       2    -1     0     0   132     0  0.000000000E+00  0.000000000E+00 -2.519580300E+03  2.519580300E+03  0.000000000E+00  0.00000E+00  9.000E+00
       6     1     1     2   132     0  1.872694554E+02 -1.609786015E+02 -6.285583189E+01  3.068807825E+02  1.710000000E+02  0.00000E+00  9.000E+00
      -6     1     1     2     0   143  1.453728720E+02 -2.582011161E+02  4.520073672E+00  3.421440037E+02  1.710000000E+02  0.00000E+00  9.000E+00
       2     1     1     2   142     0 -3.326423274E+02  4.191797176E+02 -2.132846499E+03  2.198953556E+03  0.000000000E+00  0.00000E+00  9.000E+00
</event>
<event>
      5   1006  1.00000E+00  2.35899E+01  0.00000E+00  0.00000E+00
      21    -1     0     0   132   133  0.000000000E+00  0.000000000E+00  3.042164007E+02  3.042164007E+02  0.000000000E+00  0.00000E+00  9.000E+00
      21    -1     0     0   133   134  0.000000000E+00  0.000000000E+00 -4.247952469E+02  4.247952469E+02  0.000000000E+00  0.00000E+00  9.000E+00
       6     1     1     2   132     0 -1.604638830E+01  5.420930482E+01  1.311681382E+02  2.228053316E+02  1.710000000E+02  0.00000E+00  9.000E+00
      -6     1     1     2     0   135 -2.050152354E+00 -3.907661948E+01  6.611833915E+01  1.874668506E+02  1.710000000E+02  0.00000E+00  9.000E+00
      21     1     1     2   135   134  1.809654065E+01 -1.513268534E+01 -3.178653235E+02  3.187394654E+02  0.000000000E+00  0.00000E+00  9.000E+00
</event>
<event>
      5   1006  1.00000E+00  3.19947E+01  0.00000E+00  0.00000E+00
      21    -1     0     0   142   143  0.000000000E+00  0.000000000E+00  9.908190229E+01  9.908190229E+01  0.000000000E+00  0.00000E+00  9.000E+00
       1    -1     0     0   132     0  0.000000000E+00  0.000000000E+00 -1.774941735E+03  1.774941735E+03  0.000000000E+00  0.00000E+00  9.000E+00
       6     1     1     2   132     0  2.561796632E+01 -1.901517739E+01  2.070583428E+00  1.739630549E+02  1.710000000E+02  0.00000E+00  9.000E+00
      -6     1     1     2     0   143 -3.551458569E+01  4.944082027E+01 -7.526735737E+02  7.742507275E+02  1.710000000E+02  0.00000E+00  9.000E+00
       1     1     1     2   142     0  9.896619373E+00 -3.042564289E+01 -9.252568419E+02  9.258098543E+02  0.000000000E+00  0.00000E+00  9.000E+00
</event>
<event>
      5   1006  1.00000E+00  2.38475E+02  0.00000E+00  0.00000E+00
      21    -1     0     0   132   133  0.000000000E+00  0.000000000E+00  4.444123297E+02  4.444123297E+02  0.000000000E+00  0.00000E+00  9.000E+00
      -1    -1     0     0     0   142  0.000000000E+00  0.000000000E+00 -5.299953350E+02  5.299953350E+02  0.000000000E+00  0.00000E+00  9.000E+00
       6     1     1     2   132     0 -1.380943128E+02  5.180324871E+01 -1.819773455E+01  2.265519219E+02  1.710000000E+02  0.00000E+00  9.000E+00
      -6     1     1     2     0   142  6.629385063E+01 -2.792129141E+02  2.001759070E+02  3.894433461E+02  1.710000000E+02  0.00000E+00  9.000E+00
      -1     1     1     2     0   133  7.180046214E+01  2.274096654E+02 -2.675611777E+02  3.584123967E+02  0.000000000E+00  0.00000E+00  9.000E+00
</event>
<event>
      5   1006  1.00000E+00  3.11150E+02  0.00000E+00  0.00000E+00
      21    -1     0     0   142   143  0.000000000E+00  0.000000000E+00  1.087128140E+02  1.087128140E+02  0.000000000E+00  0.00000E+00  9.000E+00
       2    -1     0     0   132     0  0.000000000E+00  0.000000000E+00 -2.691927278E+03  2.691927278E+03  0.000000000E+00  0.00000E+00  9.000E+00
       6     1     1     2   132     0 -1.570736918E+02 -4.103737749E+01 -2.322703158E+02  3.309784141E+02  1.710000000E+02  0.00000E+00  9.000E+00
      -6     1     1     2     0   143 -1.407995372E+02  1.309577463E+02 -2.999631081E+02  3.952129896E+02  1.710000000E+02  0.00000E+00  9.000E+00
       2     1     1     2   142     0  2.978732290E+02 -8.992036879E+01 -2.050981040E+03  2.074448688E+03  0.000000000E+00  0.00000E+00  9.000E+00
</event>
<event>
      5   1006  1.00000E+00  1.91798E+01  0.00000E+00  0.00000E+00
      21    -1     0     0   134   135  0.000000000E+00  0.000000000E+00  8.071329336E+01  8.071329336E+01  0.000000000E+00  0.00000E+00  9.000E+00
      21    -1     0     0   133   134  0.000000000E+00  0.000000000E+00 -6.064686626E+02  6.064686626E+02  0.000000000E+00  0.00000E+00  9.000E+00
       6     1     1     2   132     0  1.066606082E+02 -1.732493340E+01 -2.783299573E+02  3.440715097E+02  1.710000000E+02  0.00000E+00  9.000E+00
      -6     1     1     2     0   135 -9.880032539E+01 -1.702341473E-01 -1.616363927E+02  2.552035594E+02  1.710000000E+02  0.00000E+00  9.000E+00
      21     1     1     2   133   132 -7.860282850E+00  1.749516755E+01 -8.578901923E+01  8.790688684E+01  0.000000000E+00  0.00000E+00  9.000E+00
</event>
<event>
      5   1006  1.00000E+00  1.27271E+02  0.00000E+00  0.00000E+00
      21    -1     0     0   134   135  0.000000000E+00  0.000000000E+00  8.335799638E+02  8.335799638E+02  0.000000000E+00  0.00000E+00  9.000E+00
      21    -1     0     0   132   133  0.000000000E+00  0.000000000E+00 -2.389797347E+02  2.389797347E+02  0.000000000E+00  0.00000E+00  9.000E+00
       6     1     1     2   132     0  4.316824843E+01  1.277220245E+01 -5.908406399E+01  1.864364595E+02  1.710000000E+02  0.00000E+00  9.000E+00
      -6     1     1     2     0   135 -1.352191977E+02 -1.006614812E+02  2.130508205E+01  2.410640408E+02  1.710000000E+02  0.00000E+00  9.000E+00
      21     1     1     2   134   133  9.205094927E+01  8.788927878E+01  6.323792110E+02  6.450591982E+02  0.000000000E+00  0.00000E+00  9.000E+00
</event>
<event>
      5   1006  1.00000E+00  1.46118E+02  0.00000E+00  0.00000E+00
      21    -1     0     0   132   133  0.000000000E+00  0.000000000E+00  8.890894082E+02  8.890894082E+02  0.000000000E+00  0.00000E+00  9.000E+00
      21    -1     0     0   134   135  0.000000000E+00  0.000000000E+00 -1.774297415E+02  1.774297415E+02  0.000000000E+00  0.00000E+00  9.000E+00
       6     1     1     2   132     0 -3.697523633E+01 -7.075157446E+01  6.612220500E+02  6.876252997E+02  1.710000000E+02  0.00000E+00  9.000E+00
      -6     1     1     2     0   135  1.215355001E+02 -4.841264051E+01 -2.085436462E+01  2.163112712E+02  1.710000000E+02  0.00000E+00  9.000E+00
      21     1     1     2   134   133 -8.456026375E+01  1.191642150E+02  7.129198137E+01  1.625825788E+02  0.000000000E+00  0.00000E+00  9.000E+00
</event>
<event>
      5   1006  1.00000E+00  2.93340E+00  0.00000E+00  0.00000E+00
      -2    -1     0     0     0   142  0.000000000E+00  0.000000000E+00  2.120587277E+01  2.120587277E+01  0.000000000E+00  0.00000E+00  9.000E+00
       2    -1     0     0   133     0  0.000000000E+00  0.000000000E+00 -1.766597456E+03  1.766597456E+03  0.000000000E+00  0.00000E+00  9.000E+00
       6     1     1     2   132     0 -5.052474584E+01 -2.773901297E+01 -7.421886499E+02  7.638109680E+02  1.710000000E+02  0.00000E+00  9.000E+00
      -6     1     1     2     0   142  5.125738131E+01  3.057944564E+01 -7.792895240E+02  8.000597377E+02  1.710000000E+02  0.00000E+00  9.000E+00
      21     1     1     2   133   132 -7.326354699E-01 -2.840432669E+00 -2.239134091E+02  2.239326229E+02  0.000000000E+00  0.00000E+00  9.000E+00
</event>
<event>
      5   1006  1.00000E+00  1.71985E+02  0.00000E+00  0.00000E+00
      21    -1     0     0   134   135  0.000000000E+00  0.000000000E+00  1.521489766E+02  1.521489766E+02  0.000000000E+00  0.00000E+00  9.000E+00
      21    -1     0     0   133   134  0.000000000E+00  0.000000000E+00 -8.608151945E+02  8.608151945E+02  0.000000000E+00  0.00000E+00  9.000E+00
       6     1     1     2   132     0  3.293802189E+01 -1.080348113E+02 -2.147196908E+02  2.968197759E+02  1.710000000E+02  0.00000E+00  9.000E+00
      -6     1     1     2     0   135 -1.191805204E+02  2.568338295E+02 -2.368436228E+02  4.068212312E+02  1.710000000E+02  0.00000E+00  9.000E+00
      21     1     1     2   133   132  8.624249853E+01 -1.487990182E+02 -2.571029043E+02  3.093231640E+02  0.000000000E+00  0.00000E+00  9.000E+00
</event>
<event>
      5   1006  1.00000E+00  3.01492E+01  0.00000E+00  0.00000E+00
      21    -1     0     0   132   133  0.000000000E+00  0.000000000E+00  5.601461373E+02  5.601461373E+02  0.000000000E+00  0.00000E+00  9.000E+00
      21    -1     0     0   134   135  0.000000000E+00  0.000000000E+00 -1.363605675E+02  1.363605675E+02  0.000000000E+00  0.00000E+00  9.000E+00
       6     1     1     2   132     0  2.978846251E+01  4.943488701E+01  9.497246402E+00  1.807273035E+02  1.710000000E+02  0.00000E+00  9.000E+00
      -6     1     1     2     0   135 -7.694655672E+00 -2.892050887E+01  1.005915474E+02  2.006371425E+02  1.710000000E+02  0.00000E+00  9.000E+00
      21     1     1     2   134   133 -2.209380684E+01 -2.051437814E+01  3.136967760E+02  3.151422588E+02  0.000000000E+00  0.00000E+00  9.000E+00
</event>
<event>
      5   1006  1.00000E+00  2.72911E+01  0.00000E+00  0.00000E+00
      21    -1     0     0   134   135  0.000000000E+00  0.000000000E+00  2.446307390E+01  2.446307390E+01  0.000000000E+00  0.00000E+00  9.000E+00
      21    -1     0     0   132   133  0.000000000E+00  0.000000000E+00 -2.859440775E+03  2.859440775E+03  0.000000000E+00  0.00000E+00  9.000E+00
       6     1     1     2   132     0 -4.912206285E+01  8.675405747E+01 -1.827892733E+03  1.838578822E+03  1.710000000E+02  0.00000E+00  9.000E+00
      -6     1     1     2     0   135  7.531004285E+01 -9.443479491E+01 -5.673673530E+02  6.047613134E+02  1.710000000E+02  0.00000E+00  9.000E+00
      21     1     1     2   134   133 -2.618798000E+01  7.680737443E+00 -4.397176153E+02  4.405637131E+02  0.000000000E+00  0.00000E+00  9.000E+00
</event>
<event>
      5   1006  1.00000E+00  1.75696E+02  0.00000E+00  0.00000E+00
       2    -1     0     0   132     0  0.000000000E+00  0.000000000E+00  3.865647016E+03  3.865647016E+03  0.000000000E+00  0.00000E+00  9.000E+00
      21    -1     0     0   142   143  0.000000000E+00  0.000000000E+00 -1.162632138E+02  1.162632138E+02  0.000000000E+00  0.00000E+00  9.000E+00
       6     1     1     2   132     0 -2.134866225E+02  1.313740833E+01  1.198311560E+02  2.989140937E+02  1.710000000E+02  0.00000E+00  9.000E+00
      -6     1     1     2     0   143  7.300353033E+01  9.237887952E+01  4.187763101E+02  4.674162714E+02  1.710000000E+02  0.00000E+00  9.000E+00
       2     1     1     2   142     0  1.404830921E+02 -1.055162878E+02  3.210776336E+03  3.215579864E+03  0.000000000E+00  0.00000E+00  9.000E+00
</event>
<event>
      5   1006  1.00000E+00  1.38600E+02  0.00000E+00  0.00000E+00
      21    -1     0     0   132   133  0.000000000E+00  0.000000000E+00  7.166531808E+02  7.166531808E+02  0.000000000E+00  0.00000E+00  9.000E+00
       1    -1     0     0   133     0  0.000000000E+00  0.000000000E+00 -4.709617128E+02  4.709617128E+02  0.000000000E+00  0.00000E+00  9.000E+00
       6     1     1     2   132     0  1.158233895E+02 -3.224676184E+02  1.529249941E+02  4.123438811E+02  1.710000000E+02  0.00000E+00  9.000E+00
      -6     1     1     2     0   142 -1.354999833E+01  4.160103210E+02  2.891670556E+02  5.348894985E+02  1.710000000E+02  0.00000E+00  9.000E+00
       1     1     1     2   142     0 -1.022733912E+02 -9.354270260E+01 -1.964005817E+02  2.403815140E+02  0.000000000E+00  0.00000E+00  9.000E+00
</event>
<event>
      5   1006  1.00000E+00  1.68911E+01  0.00000E+00  0.00000E+00
      -1    -1     0     0     0   142  0.000000000E+00  0.000000000E+00  1.088543179E+03  1.088543179E+03  0.000000000E+00  0.00000E+00  9.000E+00
      21    -1     0     0   142   143  0.000000000E+00  0.000000000E+00 -2.929756107E+02  2.929756107E+02  0.000000000E+00  0.00000E+00  9.000E+00
       6     1     1     2   132     0 -2.181909700E+01 -3.071162941E+01 -1.975572871E+02  2.639870430E+02  1.710000000E+02  0.00000E+00  9.000E+00
      -6     1     1     2     0   143  3.414926819E+01  4.225622870E+01  6.741901682E+01  1.916718164E+02  1.710000000E+02  0.00000E+00  9.000E+00
      -1     1     1     2     0   132 -1.233017119E+01 -1.154459929E+01  9.257058389E+02  9.258599306E+02  0.000000000E+00  0.00000E+00  9.000E+00
</event>
<event>
      5   1006  1.00000E+00  1.36498E+02  0.00000E+00  0.00000E+00
      21    -1     0     0   132   133  0.000000000E+00  0.000000000E+00  2.175093309E+03  2.175093309E+03  0.000000000E+00  0.00000E+00  9.000E+00
      21    -1     0     0   133   134  0.000000000E+00  0.000000000E+00 -1.048946204E+03  1.048946204E+03  0.000000000E+00  0.00000E+00  9.000E+00
       6     1     1     2   132     0 -1.763984906E+02 -1.991882255E+02  3.801622495E+02  4.945267562E+02  1.710000000E+02  0.00000E+00  9.000E+00
      -6     1     1     2     0   135  4.387822955E+01  2.319003951E+02  1.720739488E+03  1.745247397E+03  1.710000000E+02  0.00000E+00  9.000E+00
      21     1     1     2   135   134  1.325202610E+02 -3.271216961E+01 -9.747546325E+02  9.842653601E+02  0.000000000E+00  0.00000E+00  9.000E+00
</event>
<event>
      5   1006  1.00000E+00  1.78184E+01  0.00000E+00  0.00000E+00
      21    -1     0     0   134   135  0.000000000E+00  0.000000000E+00  9.462410052E+02  9.462410052E+02  0.000000000E+00  0.00000E+00  9.000E+00
      21    -1     0     0   133   134  0.000000000E+00  0.000000000E+00 -1.695006636E+02  1.695006636E+02  0.000000000E+00  0.00000E+00  9.000E+00
       6     1     1     2   132     0  8.864886798E+01 -7.220482698E+01  7.883595303E-01  2.057031364E+02  1.710000000E+02  0.00000E+00  9.000E+00
      -6     1     1     2     0   135 -9.121617874E+01  5.457236832E+01  8.295090194E+02  8.535951897E+02  1.710000000E+02  0.00000E+00  9.000E+00
      21     1     1     2   133   132  2.567310756E+00  1.763245866E+01 -5.355703732E+01  5.644334265E+01  0.000000000E+00  0.00000E+00  9.000E+00
</event>
<event>
      5   1006  1.00000E+00  1.14680E+02  0.00000E+00  0.00000E+00
      21    -1     0     0   134   135  0.000000000E+00  0.000000000E+00  1.455492516E+03  1.455492516E+03  0.000000000E+00  0.00000E+00  9.000E+00
      21    -1     0     0   132   133  0.000000000E+00  0.000000000E+00 -9.882490952E+01  9.882490952E+01  0.000000000E+00  0.00000E+00  9.000E+00
       6     1     1     2   132     0  1.595863933E+02  1.401594709E+02  2.131230360E+02  3.460851379E+02  1.710000000E+02  0.00000E+00  9.000E+00
      -6     1     1     2     0   135 -6.012513014E+01 -1.972473354E+02  9.002963065E+02  9.393061174E+02  1.710000000E+02  0.00000E+00  9.000E+00
      21     1     1     2   134   133 -9.946126312E+01  5.708786460E+01  2.432482640E+02  2.689261703E+02  0.000000000E+00  0.00000E+00  9.000E+00
</event>
<event>
      5   1006  1.00000E+00  2.34981E+01  0.00000E+00  0.00000E+00
      21    -1     0     0   132   133  0.000000000E+00  0.000000000E+00  2.442267424E+02  2.442267424E+02  0.000000000E+00  0.00000E+00  9.000E+00
      21    -1     0     0   134   135  0.000000000E+00  0.000000000E+00 -3.296308526E+02  3.296308526E+02  0.000000000E+00  0.00000E+00  9.000E+00
       6     1     1     2   132     0 -1.054914963E+02  2.451234499E+01  1.392999891E+02  2.457128361E+02  1.710000000E+02  0.00000E+00  9.000E+00
      -6     1     1     2     0   135  1.094051460E+02 -1.342418387E+00 -2.270002255E+02  3.045347114E+02  1.710000000E+02  0.00000E+00  9.000E+00
      21     1     1     2   134   133 -3.913649778E+00 -2.316992660E+01  2.296126169E+00  2.361004762E+01  0.000000000E+00  0.00000E+00  9.000E+00
</event>
<event>
      5   1006  1.00000E+00  8.50232E+01  0.00000E+00  0.00000E+00
      21    -1     0     0   134   135  0.000000000E+00  0.000000000E+00  4.476493828E+02  4.476493828E+02  0.000000000E+00  0.00000E+00  9.000E+00
      21    -1     0     0   132   133  0.000000000E+00  0.000000000E+00 -2.750300338E+02  2.750300338E+02  0.000000000E+00  0.00000E+00  9.000E+00
       6     1     1     2   132     0 -1.777520318E+01 -9.623948879E+01 -1.874724149E+02  2.719648937E+02  1.710000000E+02  0.00000E+00  9.000E+00
      -6     1     1     2     0   135  6.600446793E+01  2.621895750E+01  2.294628136E+02  2.948528554E+02  1.710000000E+02  0.00000E+00  9.000E+00
      21     1     1     2   134   133 -4.822926474E+01  7.002053129E+01  1.306289502E+02  1.558616675E+02  0.000000000E+00  0.00000E+00  9.000E+00
</event>
<event>
      5   1006  1.00000E+00  7.23942E+01  0.00000E+00  0.00000E+00
      21    -1     0     0   132   133  0.000000000E+00  0.000000000E+00  4.874982133E+02  4.874982133E+02  0.000000000E+00  0.00000E+00  9.000E+00
      21    -1     0     0   133   134  0.000000000E+00  0.000000000E+00 -7.696888963E+02  7.696888963E+02  0.000000000E+00  0.00000E+00  9.000E+00
       6     1     1     2   132     0  2.359821336E+02 -7.822392911E+01  3.659420778E+02  4.743007007E+02  1.710000000E+02  0.00000E+00  9.000E+00
      -6     1     1     2     0   135 -1.675120125E+02  1.017347416E+02 -1.977849579E+02  3.267569763E+02  1.710000000E+02  0.00000E+00  9.000E+00
      21     1     1     2   135   134 -6.847012108E+01 -2.351081250E+01 -4.503478028E+02  4.561294326E+02  0.000000000E+00  0.00000E+00  9.000E+00
</event>
<event>
      5   1006  1.00000E+00  6.31420E+01  0.00000E+00  0.00000E+00
      21    -1     0     0   132   133  0.000000000E+00  0.000000000E+00  2.212225384E+02  2.212225384E+02  0.000000000E+00  0.00000E+00  9.000E+00
      21    -1     0     0   133   134  0.000000000E+00  0.000000000E+00 -1.094921710E+03  1.094921710E+03  0.000000000E+00  0.00000E+00  9.000E+00
       6     1     1     2   132     0  1.523979921E+01  4.130924697E+02 -2.895149371E+02  5.328578974E+02  1.710000000E+02  0.00000E+00  9.000E+00
      -6     1     1     2     0   135  4.394792332E+01 -3.910986206E+02 -3.927479658E+02  5.817056951E+02  1.710000000E+02  0.00000E+00  9.000E+00
      21     1     1     2   135   134 -5.918772253E+01 -2.199384912E+01 -1.914362685E+02  2.015806558E+02  0.000000000E+00  0.00000E+00  9.000E+00
</event>
<event>
      5   1006  1.00000E+00  1.09886E+02  0.00000E+00  0.00000E+00
      21    -1     0     0   134   135  0.000000000E+00  0.000000000E+00  1.868323300E+02  1.868323300E+02  0.000000000E+00  0.00000E+00  9.000E+00
      21    -1     0     0   132   133  0.000000000E+00  0.000000000E+00 -8.034677205E+02  8.034677205E+02  0.000000000E+00  0.00000E+00  9.000E+00
       6     1     1     2   132     0 -2.328054495E+00 -9.503895986E+01 -5.465666991E+02  5.805290521E+02  1.710000000E+02  0.00000E+00  9.000E+00
      -6     1     1     2     0   135  7.441131973E+01  1.779776604E+02 -1.254808611E+02  2.867046191E+02  1.710000000E+02  0.00000E+00  9.000E+00
      21     1     1     2   134   133 -7.208326523E+01 -8.293870054E+01  5.541216970E+01  1.230663793E+02  0.000000000E+00  0.00000E+00  9.000E+00
</event>
<event>
      5   1006  1.00000E+00  2.81766E+01  0.00000E+00  0.00000E+00
      21    -1     0     0   132   133  0.000000000E+00  0.000000000E+00  4.100581879E+02  4.100581879E+02  0.000000000E+00  0.00000E+00  9.000E+00
      21    -1     0     0   134   135  0.000000000E+00  0.000000000E+00 -2.312623062E+02  2.312623062E+02  0.000000000E+00  0.00000E+00  9.000E+00
       6     1     1     2   132     0 -1.034561026E+02  8.314823999E+01  2.849988041E+02  3.578856148E+02  1.710000000E+02  0.00000E+00  9.000E+00
      -6     1     1     2     0   135  1.209565067E+02 -1.052312450E+02 -9.127058394E+01  2.515460414E+02  1.710000000E+02  0.00000E+00  9.000E+00
      21     1     1     2   134   133 -1.750040403E+01  2.208300500E+01 -1.493233851E+01  3.188883793E+01  0.000000000E+00  0.00000E+00  9.000E+00
</event>
<event>
      5   1006  1.00000E+00  4.03146E+01  0.00000E+00  0.00000E+00
      21    -1     0     0   134   135  0.000000000E+00  0.000000000E+00  1.868611303E+02  1.868611303E+02  0.000000000E+00  0.00000E+00  9.000E+00
      21    -1     0     0   132   133  0.000000000E+00  0.000000000E+00 -4.921900233E+02  4.921900233E+02  0.000000000E+00  0.00000E+00  9.000E+00
       6     1     1     2   132     0 -1.173404984E+02 -5.810157337E+01 -3.486073823E+02  4.097715124E+02  1.710000000E+02  0.00000E+00  9.000E+00
      -6     1     1     2     0   135  8.254324542E+01  3.774437600E+01  8.484786762E+01  2.113721503E+02  1.710000000E+02  0.00000E+00  9.000E+00
      21     1     1     2   134   133  3.479725294E+01  2.035719737E+01 -4.156937827E+01  5.790749094E+01  0.000000000E+00  0.00000E+00  9.000E+00
</event>
<event>
      5   1006  1.00000E+00  6.98180E+01  0.00000E+00  0.00000E+00
      21    -1     0     0   132   133  0.000000000E+00  0.000000000E+00  4.098825403E+01  4.098825403E+01  0.000000000E+00  0.00000E+00  9.000E+00
      21    -1     0     0   134   135  0.000000000E+00  0.000000000E+00 -2.413001904E+03  2.413001904E+03  0.000000000E+00  0.00000E+00  9.000E+00
       6     1     1     2   132     0 -1.415327704E+02  2.065253743E+01 -1.136335560E+03  1.157997218E+03  1.710000000E+02  0.00000E+00  9.000E+00
      -6     1     1     2     0   135  1.169666054E+02 -8.600581827E+01 -1.193556120E+03  1.214452716E+03  1.710000000E+02  0.00000E+00  9.000E+00
      21     1     1     2   134   133  2.456616495E+01  6.535328084E+01 -4.212197011E+01  8.154022408E+01  0.000000000E+00  0.00000E+00  9.000E+00
</event>
<event>
      5   1006  1.00000E+00  3.94158E+01  0.00000E+00  0.00000E+00
      21    -1     0     0   134   135  0.000000000E+00  0.000000000E+00  1.170878108E+03  1.170878108E+03  0.000000000E+00  0.00000E+00  9.000E+00
      21    -1     0     0   132   133  0.000000000E+00  0.000000000E+00 -6.194361829E+01  6.194361829E+01  0.000000000E+00  0.00000E+00  9.000E+00
       6     1     1     2   132     0  1.371266931E+02 -1.451391067E+01  4.608883647E+02  5.105619143E+02  1.710000000E+02  0.00000E+00  9.000E+00
      -6     1     1     2     0   135 -1.695622894E+02  3.690893623E+01  6.359665304E+02  6.810345567E+02  1.710000000E+02  0.00000E+00  9.000E+00
      21     1     1     2   134   133  3.243559631E+01 -2.239502556E+01  1.207959459E+01  4.122525540E+01  0.000000000E+00  0.00000E+00  9.000E+00
</event>
<event>
      5   1006  1.00000E+00  3.65374E+00  0.00000E+00  0.00000E+00
      21    -1     0     0   134   135  0.000000000E+00  0.000000000E+00  1.659921470E+02  1.659921470E+02  0.000000000E+00  0.00000E+00  9.000E+00
      21    -1     0     0   133   134  0.000000000E+00  0.000000000E+00 -3.059959478E+02  3.059959478E+02  0.000000000E+00  0.00000E+00  9.000E+00
       6     1     1     2   132     0  5.860498645E+00  5.314830479E+01  2.920608870E+01  1.815298415E+02  1.710000000E+02  0.00000E+00  9.000E+00
      -6     1     1     2     0   135 -3.094988250E+00 -5.076046272E+01 -7.073105393E+01  1.919116607E+02  1.710000000E+02  0.00000E+00  9.000E+00
      21     1     1     2   133   132 -2.765510395E+00 -2.387842067E+00 -9.847883564E+01  9.854659257E+01  0.000000000E+00  0.00000E+00  9.000E+00
</event>
<event>
      5   1006  1.00000E+00  3.32792E+01  0.00000E+00  0.00000E+00
      21    -1     0     0   133   134  0.000000000E+00  0.000000000E+00  5.741493265E+02  5.741493265E+02  0.000000000E+00  0.00000E+00  9.000E+00
      21    -1     0     0   134   135  0.000000000E+00  0.000000000E+00 -2.275405703E+02  2.275405703E+02  0.000000000E+00  0.00000E+00  9.000E+00
       6     1     1     2   132     0  1.172932072E+02 -2.619037588E+02  9.152439720E+01  3.463654004E+02  1.710000000E+02  0.00000E+00  9.000E+00
      -6     1     1     2     0   135 -8.441911683E+01  2.670803055E+02  1.825771050E+02  3.755447725E+02  1.710000000E+02  0.00000E+00  9.000E+00
      21     1     1     2   133   132 -3.287409032E+01 -5.176546740E+00  7.250725403E+01  7.977972385E+01  0.000000000E+00  0.00000E+00  9.000E+00
</event>
<event>
      5   1006  1.00000E+00  1.65090E+01  0.00000E+00  0.00000E+00
       1    -1     0     0   132     0  0.000000000E+00  0.000000000E+00  1.846030422E+02  1.846030422E+02  0.000000000E+00  0.00000E+00  9.000E+00
      21    -1     0     0   142   143  0.000000000E+00  0.000000000E+00 -1.096605985E+03  1.096605985E+03  0.000000000E+00  0.00000E+00  9.000E+00
       6     1     1     2   132     0  1.722311776E+02 -6.966543103E+01 -5.619421378E+02  6.160655948E+02  1.710000000E+02  0.00000E+00  9.000E+00
      -6     1     1     2     0   143 -1.785176489E+02  8.493065734E+01 -4.733657123E+02  5.407382593E+02  1.710000000E+02  0.00000E+00  9.000E+00
       1     1     1     2   142     0  6.286471344E+00 -1.526522631E+01  1.233049075E+02  1.244051730E+02  0.000000000E+00  0.00000E+00  9.000E+00
</event>
<event>
      5   1006  1.00000E+00  5.14335E+01  0.00000E+00  0.00000E+00
      21    -1     0     0   133   134  0.000000000E+00  0.000000000E+00  1.225605423E+02  1.225605423E+02  0.000000000E+00  0.00000E+00  9.000E+00
      21    -1     0     0   132   133  0.000000000E+00  0.000000000E+00 -5.250148242E+02  5.250148242E+02  0.000000000E+00  0.00000E+00  9.000E+00
       6     1     1     2   132     0  6.507544178E+01  3.978701500E+00 -3.067418204E+02  3.571864885E+02  1.710000000E+02  0.00000E+00  9.000E+00
      -6     1     1     2     0   135 -1.524729452E+01 -1.672848931E+01 -1.402799161E+02  2.223325824E+02  1.710000000E+02  0.00000E+00  9.000E+00
      21     1     1     2   135   134 -4.982814726E+01  1.274978781E+01  4.456745468E+01  6.805629555E+01  0.000000000E+00  0.00000E+00  9.000E+00
</event>
<event>
      5   1006  1.00000E+00  1.04362E+02  0.00000E+00  0.00000E+00
      21    -1     0     0   134   135  0.000000000E+00  0.000000000E+00  4.651451589E+02  4.651451589E+02  0.000000000E+00  0.00000E+00  9.000E+00
      21    -1     0     0   132   133  0.000000000E+00  0.000000000E+00 -1.476758672E+02  1.476758672E+02  0.000000000E+00  0.00000E+00  9.000E+00
       6     1     1     2   132     0 -3.185757817E+01  8.604034121E-01  8.054334233E+01  1.916869207E+02  1.710000000E+02  0.00000E+00  9.000E+00
      -6     1     1     2     0   135 -6.816655022E+01 -3.063625457E+01  2.542050454E+02  3.153513339E+02  1.710000000E+02  0.00000E+00  9.000E+00
      21     1     1     2   134   133  1.000241284E+02  2.977585115E+01 -1.727909606E+01  1.057827714E+02  0.000000000E+00  0.00000E+00  9.000E+00
</event>
<event>
      5   1006  1.00000E+00  7.61746E+00  0.00000E+00  0.00000E+00
      21    -1     0     0   132   133  0.000000000E+00  0.000000000E+00  1.057201658E+02  1.057201658E+02  0.000000000E+00  0.00000E+00  9.000E+00
      21    -1     0     0   134   135  0.000000000E+00  0.000000000E+00 -4.254752226E+02  4.254752226E+02  0.000000000E+00  0.00000E+00  9.000E+00
       6     1     1     2   132     0  4.556336913E+01 -5.703566582E+01 -1.835947324E+02  2.612988970E+02  1.710000000E+02  0.00000E+00  9.000E+00
      -6     1     1     2     0   135 -4.217153214E+01  5.021503010E+01 -1.610413049E+02  2.438755610E+02  1.710000000E+02  0.00000E+00  9.000E+00
      21     1     1     2   134   133 -3.391836990E+00  6.820635719E+00  2.488098055E+01  2.602093048E+01  0.000000000E+00  0.00000E+00  9.000E+00
</event>
<event>
      5   1006  1.00000E+00  4.07334E+01  0.00000E+00  0.00000E+00
      21    -1     0     0   132   133  0.000000000E+00  0.000000000E+00  5.686792761E+02  5.686792761E+02  0.000000000E+00  0.00000E+00  9.000E+00
      21    -1     0     0   133   134  0.000000000E+00  0.000000000E+00 -2.664496534E+02  2.664496534E+02  0.000000000E+00  0.00000E+00  9.000E+00
       6     1     1     2   132     0 -1.838688268E+01 -2.289245370E+02  3.221654210E+02  4.310174933E+02  1.710000000E+02  0.00000E+00  9.000E+00
      -6     1     1     2     0   135  5.903257005E+01  2.315960516E+02  7.285710497E+01  3.027717510E+02  1.710000000E+02  0.00000E+00  9.000E+00
      21     1     1     2   135   134 -4.064568738E+01 -2.671514587E+00 -9.279290328E+01  1.013396852E+02  0.000000000E+00  0.00000E+00  9.000E+00
</event>
<event>
      5   1006  1.00000E+00  2.11375E+01  0.00000E+00  0.00000E+00
      21    -1     0     0   132   133  0.000000000E+00  0.000000000E+00  3.881939035E+02  3.881939035E+02  0.000000000E+00  0.00000E+00  9.000E+00
      21    -1     0     0   134   135  0.000000000E+00  0.000000000E+00 -3.398844259E+02  3.398844259E+02  0.000000000E+00  0.00000E+00  9.000E+00
       6     1     1     2   132     0 -1.590893291E+02 -9.415122571E+01  2.699579673E+02  3.691776971E+02  1.710000000E+02  0.00000E+00  9.000E+00
      -6     1     1     2     0   135  1.558500838E+02  7.326337355E+01 -2.316656150E+02  3.355096537E+02  1.710000000E+02  0.00000E+00  9.000E+00
      21     1     1     2   134   133  3.239245238E+00  2.088785216E+01  1.001712539E+01  2.339097857E+01  0.000000000E+00  0.00000E+00  9.000E+00
</event>
<event>
      5   1006  1.00000E+00  8.40875E+01  0.00000E+00  0.00000E+00
      21    -1     0     0   134   135  0.000000000E+00  0.000000000E+00  1.599803705E+03  1.599803705E+03  0.000000000E+00  0.00000E+00  9.000E+00
      21    -1     0     0   132   133  0.000000000E+00  0.000000000E+00 -9.013032819E+01  9.013032819E+01  0.000000000E+00  0.00000E+00  9.000E+00
       6     1     1     2   132     0  9.977229570E+01 -2.141405753E+01  7.871135678E+01  2.141250815E+02  1.710000000E+02  0.00000E+00  9.000E+00
      -6     1     1     2     0   135 -2.773643680E+01 -2.196274939E+01  3.457539719E+02  3.873480107E+02  1.710000000E+02  0.00000E+00  9.000E+00
      21     1     1     2   134   133 -7.203585889E+01  4.337680693E+01  1.085208049E+03  1.088460941E+03  0.000000000E+00  0.00000E+00  9.000E+00
</event>
<event>
      5   1006  1.00000E+00  3.29649E+01  0.00000E+00  0.00000E+00
      21    -1     0     0   134   135  0.000000000E+00  0.000000000E+00  7.215354824E+02  7.215354824E+02  0.000000000E+00  0.00000E+00  9.000E+00
      21    -1     0     0   132   133  0.000000000E+00  0.000000000E+00 -4.073677535E+02  4.073677535E+02  0.000000000E+00  0.00000E+00  9.000E+00
       6     1     1     2   132     0 -1.651951621E+02  2.685720526E+02 -7.597595630E+01  3.666520626E+02  1.710000000E+02  0.00000E+00  9.000E+00
      -6     1     1     2     0   135  1.325186205E+02 -2.729229513E+02  5.213468059E+02  6.269701860E+02  1.710000000E+02  0.00000E+00  9.000E+00
      21     1     1     2   134   133  3.267654160E+01  4.350898645E+00 -1.312031206E+02  1.352809874E+02  0.000000000E+00  0.00000E+00  9.000E+00
</event>
<event>
      5   1006  1.00000E+00  1.03143E+02  0.00000E+00  0.00000E+00
      21    -1     0     0   132   133  0.000000000E+00  0.000000000E+00  2.804360909E+02  2.804360909E+02  0.000000000E+00  0.00000E+00  9.000E+00
      21    -1     0     0   134   135  0.000000000E+00  0.000000000E+00 -5.333558005E+02  5.333558005E+02  0.000000000E+00  0.00000E+00  9.000E+00
       6     1     1     2   132     0 -1.126526448E+02  4.772020162E+01  1.826098862E+02  2.784873544E+02  1.710000000E+02  0.00000E+00  9.000E+00
      -6     1     1     2     0   135  3.311688448E+01 -1.133903963E+02 -2.807790493E+02  3.493307667E+02  1.710000000E+02  0.00000E+00  9.000E+00
      21     1     1     2   134   133  7.953576035E+01  6.567019467E+01 -1.547505464E+02  1.859737703E+02  0.000000000E+00  0.00000E+00  9.000E+00
</event>
<event>
      5   1006  1.00000E+00  2.02206E+01  0.00000E+00  0.00000E+00
      21    -1     0     0   133   134  0.000000000E+00  0.000000000E+00  7.033002228E+02  7.033002228E+02  0.000000000E+00  0.00000E+00  9.000E+00
      21    -1     0     0   132   133  0.000000000E+00  0.000000000E+00 -1.192520715E+02  1.192520715E+02  0.000000000E+00  0.00000E+00  9.000E+00
       6     1     1     2   132     0  3.152880538E+01  7.873179542E+01  4.525911874E+01  1.961686749E+02  1.710000000E+02  0.00000E+00  9.000E+00
      -6     1     1     2     0   135 -3.709252992E+01 -9.817194883E+01  1.878084189E+02  2.748210136E+02  1.710000000E+02  0.00000E+00  9.000E+00
      21     1     1     2   135   134  5.563724541E+00  1.944015341E+01  3.509806136E+02  3.515626057E+02  0.000000000E+00  0.00000E+00  9.000E+00
</event>
<event>
      5   1006  1.00000E+00  1.32941E+01  0.00000E+00  0.00000E+00
      21    -1     0     0   132   133  0.000000000E+00  0.000000000E+00  1.832950227E+03  1.832950227E+03  0.000000000E+00  0.00000E+00  9.000E+00
      21    -1     0     0   133   134  0.000000000E+00  0.000000000E+00 -6.543062127E+02  6.543062127E+02  0.000000000E+00  0.00000E+00  9.000E+00
       6     1     1     2   132     0 -1.519259204E+01 -3.541658630E+01  1.606471066E+03  1.616006013E+03  1.710000000E+02  0.00000E+00  9.000E+00
      -6     1     1     2     0   135  2.735273377E+01  3.004411063E+01  1.867951878E+02  2.564844300E+02  1.710000000E+02  0.00000E+00  9.000E+00
      21     1     1     2   135   134 -1.216014173E+01  5.372475678E+00 -6.146222397E+02  6.147659962E+02  0.000000000E+00  0.00000E+00  9.000E+00
</event>
<event>
      5   1006  1.00000E+00  6.41089E+01  0.00000E+00  0.00000E+00
      21    -1     0     0   133   134  0.000000000E+00  0.000000000E+00  1.031023484E+02  1.031023484E+02  0.000000000E+00  0.00000E+00  9.000E+00
      21    -1     0     0   134   135  0.000000000E+00  0.000000000E+00 -1.491621117E+03  1.491621117E+03  0.000000000E+00  0.00000E+00  9.000E+00
       6     1     1     2   132     0 -1.064492484E+02  1.298719177E+01 -5.141106771E+02  5.523141298E+02  1.710000000E+02  0.00000E+00  9.000E+00
      -6     1     1     2     0   135  1.250194386E+02 -7.434757634E+01 -9.305167779E+02  9.572146552E+02  1.710000000E+02  0.00000E+00  9.000E+00
      21     1     1     2   133   132 -1.857019018E+01  6.136038457E+01  5.610868682E+01  8.519467997E+01  0.000000000E+00  0.00000E+00  9.000E+00
</event>
<event>
      5   1006  1.00000E+00  4.78100E+01  0.00000E+00  0.00000E+00
      21    -1     0     0   132   133  0.000000000E+00  0.000000000E+00  4.858360191E+02  4.858360191E+02  0.000000000E+00  0.00000E+00  9.000E+00
      21    -1     0     0   133   134  0.000000000E+00  0.000000000E+00 -3.897470652E+02  3.897470652E+02  0.000000000E+00  0.00000E+00  9.000E+00
       6     1     1     2   132     0 -7.951984795E+01 -1.078428881E+02  3.987433284E+02  4.540823016E+02  1.710000000E+02  0.00000E+00  9.000E+00
      -6     1     1     2     0   135  6.636414236E+01  6.187848116E+01 -1.092673083E+02  2.222914539E+02  1.710000000E+02  0.00000E+00  9.000E+00
      21     1     1     2   135   134  1.315570560E+01  4.596440696E+01 -1.933870661E+02  1.992093287E+02  0.000000000E+00  0.00000E+00  9.000E+00
</event>
<event>
      5   1006  1.00000E+00  3.88354E+01  0.00000E+00  0.00000E+00
       1    -1     0     0   133     0  0.000000000E+00  0.000000000E+00  1.942544926E+03  1.942544926E+03  0.000000000E+00  0.00000E+00  9.000E+00
      21    -1     0     0   132   133  0.000000000E+00  0.000000000E+00 -4.084030122E+01  4.084030122E+01  0.000000000E+00  0.00000E+00  9.000E+00
       6     1     1     2   132     0  1.376768048E+02  1.121409563E+02  7.322463456E+02  7.726294113E+02  1.710000000E+02  0.00000E+00  9.000E+00
      -6     1     1     2     0   142 -1.499235442E+02 -1.489947502E+02  9.613610502E+02  9.990658504E+02  1.710000000E+02  0.00000E+00  9.000E+00
       1     1     1     2   142     0  1.224673937E+01  3.685379383E+01  2.080972286E+02  2.116899651E+02  0.000000000E+00  0.00000E+00  9.000E+00
</event>
<event>
      5   1006  1.00000E+00  2.87131E+02  0.00000E+00  0.00000E+00
      21    -1     0     0   133   134  0.000000000E+00  0.000000000E+00  3.332286467E+02  3.332286467E+02  0.000000000E+00  0.00000E+00  9.000E+00
      21    -1     0     0   132   133  0.000000000E+00  0.000000000E+00 -8.588488877E+02  8.588488877E+02  0.000000000E+00  0.00000E+00  9.000E+00
       6     1     1     2   132     0 -3.042141403E+02 -2.262541662E+01 -4.661025149E+02  5.827097966E+02  1.710000000E+02  0.00000E+00  9.000E+00
      -6     1     1     2     0   135  1.721141758E+01  3.119427050E+01 -2.196240911E+02  2.806154963E+02  1.710000000E+02  0.00000E+00  9.000E+00
      21     1     1     2   135   134  2.870027227E+02 -8.568853883E+00  1.601063651E+02  3.287522414E+02  0.000000000E+00  0.00000E+00  9.000E+00
</event>
<event>
      5   1006  1.00000E+00  1.80491E+02  0.00000E+00  0.00000E+00
      21    -1     0     0   132   133  0.000000000E+00  0.000000000E+00  5.983412646E+01  5.983412646E+01  0.000000000E+00  0.00000E+00  9.000E+00
      21    -1     0     0   134   135  0.000000000E+00  0.000000000E+00 -3.111390710E+03  3.111390710E+03  0.000000000E+00  0.00000E+00  9.000E+00
       6     1     1     2   132     0  2.088878241E+02 -9.615761258E+01 -7.114533111E+02  7.669988419E+02  1.710000000E+02  0.00000E+00  9.000E+00
      -6     1     1     2     0   135 -1.814045095E+02  2.745442766E+02 -1.541225110E+03  1.585212288E+03  1.710000000E+02  0.00000E+00  9.000E+00
      21     1     1     2   134   133 -2.748331453E+01 -1.783866640E+02 -7.988781620E+02  8.190137070E+02  0.000000000E+00  0.00000E+00  9.000E+00
</event>
<event>
      5   1006  1.00000E+00  4.94120E+01  0.00000E+00  0.00000E+00
      21    -1     0     0   132   133  0.000000000E+00  0.000000000E+00  3.459748428E+02  3.459748428E+02  0.000000000E+00  0.00000E+00  9.000E+00
      21    -1     0     0   134   135  0.000000000E+00  0.000000000E+00 -2.557070006E+02  2.557070006E+02  0.000000000E+00  0.00000E+00  9.000E+00
       6     1     1     2   132     0 -1.119822184E+02 -7.485382444E+01  1.641453911E+02  2.726312926E+02  1.710000000E+02  0.00000E+00  9.000E+00
      -6     1     1     2     0   135  7.200246345E+01  1.038910697E+02 -1.339102399E+02  2.512979535E+02  1.710000000E+02  0.00000E+00  9.000E+00
      21     1     1     2   134   133  3.997975494E+01 -2.903724521E+01  6.003269100E+01  7.775259741E+01  0.000000000E+00  0.00000E+00  9.000E+00
</event>
<event>
      5   1006  1.00000E+00  2.65839E+01  0.00000E+00  0.00000E+00
      21    -1     0     0   134   135  0.000000000E+00  0.000000000E+00  1.659525455E+02  1.659525455E+02  0.000000000E+00  0.00000E+00  9.000E+00
      21    -1     0     0   132   133  0.000000000E+00  0.000000000E+00 -2.607736986E+02  2.607736986E+02  0.000000000E+00  0.00000E+00  9.000E+00
       6     1     1     2   132     0 -6.903500914E+01  1.284810016E+01  2.127405291E+01  1.860765743E+02  1.710000000E+02  0.00000E+00  9.000E+00
      -6     1     1     2     0   135  4.543040242E+01 -6.199723981E-01 -7.605218793E+01  1.925856722E+02  1.710000000E+02  0.00000E+00  9.000E+00
      21     1     1     2   134   133  2.360460673E+01 -1.222812776E+01 -4.004301808E+01  4.806399759E+01  0.000000000E+00  0.00000E+00  9.000E+00
</event>
<event>
      5   1006  1.00000E+00  5.55363E+00  0.00000E+00  0.00000E+00
      21    -1     0     0   132   133  0.000000000E+00  0.000000000E+00  3.813159702E+01  3.813159702E+01  0.000000000E+00  0.00000E+00  9.000E+00
      21    -1     0     0   134   135  0.000000000E+00  0.000000000E+00 -1.025153045E+03  1.025153045E+03  0.000000000E+00  0.00000E+00  9.000E+00
       6     1     1     2   132     0  1.094874177E+01  8.662363099E+01 -4.172806426E+02  4.593339341E+02  1.710000000E+02  0.00000E+00  9.000E+00
      -6     1     1     2     0   135 -9.499659014E+00 -9.198487702E+01 -5.593377160E+02  5.921580378E+02  1.710000000E+02  0.00000E+00  9.000E+00
      21     1     1     2   134   133 -1.449082752E+00  5.361246030E+00 -1.040308943E+01  1.179267016E+01  0.000000000E+00  0.00000E+00  9.000E+00
</event>
<event>
      5   1006  1.00000E+00  3.49967E+02  0.00000E+00  0.00000E+00
      21    -1     0     0   132   133  0.000000000E+00  0.000000000E+00  9.487499775E+02  9.487499775E+02  0.000000000E+00  0.00000E+00  9.000E+00
       2    -1     0     0   133     0  0.000000000E+00  0.000000000E+00 -1.258117150E+03  1.258117150E+03  0.000000000E+00  0.00000E+00  9.000E+00
       6     1     1     2   132     0 -4.163331483E+02 -4.895574577E+02 -8.946945250E+01  6.710034110E+02  1.710000000E+02  0.00000E+00  9.000E+00
      -6     1     1     2     0   142  1.670017387E+02  2.439749975E+02  5.741813791E+02  6.680858000E+02  1.710000000E+02  0.00000E+00  9.000E+00
       2     1     1     2   142     0  2.493314095E+02  2.455824602E+02 -7.940790988E+02  8.677779161E+02  0.000000000E+00  0.00000E+00  9.000E+00
</event>
<event>
      5   1006  1.00000E+00  8.65290E+01  0.00000E+00  0.00000E+00
      21    -1     0     0   132   133  0.000000000E+00  0.000000000E+00  2.019003413E+02  2.019003413E+02  0.000000000E+00  0.00000E+00  9.000E+00
       2    -1     0     0   133     0  0.000000000E+00  0.000000000E+00 -1.220385709E+03  1.220385709E+03  0.000000000E+00  0.00000E+00  9.000E+00
       6     1     1     2   132     0 -4.021982662E+01  1.474671139E+02 -3.103007419E+02  3.858649175E+02  1.710000000E+02  0.00000E+00  9.000E+00
      -6     1     1     2     0   142  5.715102306E-02 -7.082362771E+01  1.089138255E+02  2.147538379E+02  1.710000000E+02  0.00000E+00  9.000E+00
       2     1     1     2   142     0  4.016267560E+01 -7.664348621E+01 -8.170984511E+02  8.216672948E+02  0.000000000E+00  0.00000E+00  9.000E+00
</event>
<event>
      5   1006  1.00000E+00  7.79406E+01  0.00000E+00  0.00000E+00
      21    -1     0     0   134   135  0.000000000E+00  0.000000000E+00  3.436162169E+02  3.436162169E+02  0.000000000E+00  0.00000E+00  9.000E+00
      21    -1     0     0   133   134  0.000000000E+00  0.000000000E+00 -1.642632380E+03  1.642632380E+03  0.000000000E+00  0.00000E+00  9.000E+00
       6     1     1     2   132     0 -2.002185694E+02 -7.480168790E+01 -3.125737840E+02  4.154830183E+02  1.710000000E+02  0.00000E+00  9.000E+00
      -6     1     1     2     0   135  1.366252482E+02  1.198641888E+02  2.374068351E+02  3.444370589E+02  1.710000000E+02  0.00000E+00  9.000E+00
      21     1     1     2   133   132  6.359332118E+01 -4.506250086E+01 -1.223849214E+03  1.226328520E+03  0.000000000E+00  0.00000E+00  9.000E+00
</event>
<event>
      5   1006  1.00000E+00  4.62473E+01  0.00000E+00  0.00000E+00
      21    -1     0     0   134   135  0.000000000E+00  0.000000000E+00  7.988680738E+02  7.988680738E+02  0.000000000E+00  0.00000E+00  9.000E+00
      21    -1     0     0   133   134  0.000000000E+00  0.000000000E+00 -2.110779598E+02  2.110779598E+02  0.000000000E+00  0.00000E+00  9.000E+00
       6     1     1     2   132     0  9.611074159E+01 -1.138288098E+02  4.667484742E+02  5.189310270E+02  1.710000000E+02  0.00000E+00  9.000E+00
      -6     1     1     2     0   135 -5.519141620E+01  9.227832233E+01  2.687717351E+02  3.362151496E+02  1.710000000E+02  0.00000E+00  9.000E+00
      21     1     1     2   133   132 -4.091932539E+01  2.155048746E+01 -1.477300953E+02  1.547998571E+02  0.000000000E+00  0.00000E+00  9.000E+00
</event>
<event>
      5   1006  1.00000E+00  5.85009E+01  0.00000E+00  0.00000E+00
       2    -1     0     0   132     0  0.000000000E+00  0.000000000E+00  1.079338208E+02  1.079338208E+02  0.000000000E+00  0.00000E+00  9.000E+00
      21    -1     0     0   142   143  0.000000000E+00  0.000000000E+00 -6.849029606E+02  6.849029606E+02  0.000000000E+00  0.00000E+00  9.000E+00
       6     1     1     2   132     0 -2.175414183E+01  1.361903616E+02 -2.634604950E+02  3.430356975E+02  1.710000000E+02  0.00000E+00  9.000E+00
      -6     1     1     2     0   143 -3.418167873E+01 -1.190574361E+02 -3.274845514E+02  3.896539383E+02  1.710000000E+02  0.00000E+00  9.000E+00
       2     1     1     2   142     0  5.593582056E+01 -1.713292554E+01  1.397590661E+01  6.014714561E+01  0.000000000E+00  0.00000E+00  9.000E+00
</event>
<event>
      5   1006  1.00000E+00  1.62712E+01  0.00000E+00  0.00000E+00
      21    -1     0     0   132   133  0.000000000E+00  0.000000000E+00  4.884013552E+02  4.884013552E+02  0.000000000E+00  0.00000E+00  9.000E+00
      21    -1     0     0   134   135  0.000000000E+00  0.000000000E+00 -1.845556023E+02  1.845556023E+02  0.000000000E+00  0.00000E+00  9.000E+00
       6     1     1     2   132     0  1.931792732E+01 -2.343428263E+02  1.011035025E+02  3.078192014E+02  1.710000000E+02  0.00000E+00  9.000E+00
      -6     1     1     2     0   135 -2.042702765E+01  2.181095041E+02  1.629640482E+02  3.221603642E+02  1.710000000E+02  0.00000E+00  9.000E+00
      21     1     1     2   134   133  1.109100339E+00  1.623332220E+01  3.977820214E+01  4.297739195E+01  0.000000000E+00  0.00000E+00  9.000E+00
</event>
<event>
      5   1006  1.00000E+00  8.97115E+00  0.00000E+00  0.00000E+00
      -1    -1     0     0     0   142  0.000000000E+00  0.000000000E+00  5.131787635E+02  5.131787635E+02  0.000000000E+00  0.00000E+00  9.000E+00
      21    -1     0     0   132   133  0.000000000E+00  0.000000000E+00 -1.657732732E+02  1.657732732E+02  0.000000000E+00  0.00000E+00  9.000E+00
       6     1     1     2   132     0 -3.992313962E+01 -9.090329019E+00  1.327820364E+02  2.203373785E+02  1.710000000E+02  0.00000E+00  9.000E+00
      -6     1     1     2     0   142  4.884545631E+01  8.155516207E+00 -5.693425663E+01  1.869088030E+02  1.710000000E+02  0.00000E+00  9.000E+00
      -1     1     1     2     0   133 -8.922316696E+00  9.348128118E-01  2.715577106E+02  2.717058553E+02  0.000000000E+00  0.00000E+00  9.000E+00
</event>
<event>
      5   1006  1.00000E+00  2.05142E+02  0.00000E+00  0.00000E+00
      21    -1     0     0   134   135  0.000000000E+00  0.000000000E+00  1.217567752E+03  1.217567752E+03  0.000000000E+00  0.00000E+00  9.000E+00
      21    -1     0     0   132   133  0.000000000E+00  0.000000000E+00 -9.313838213E+01  9.313838213E+01  0.000000000E+00  0.00000E+00  9.000E+00
       6     1     1     2   132     0  7.654311779E+01 -1.651300799E+02  3.615690612E+02  4.394314260E+02  1.710000000E+02  0.00000E+00  9.000E+00
      -6     1     1     2     0   135 -8.330283990E+01 -3.990012366E+01  2.350068785E+02  3.049600235E+02  1.710000000E+02  0.00000E+00  9.000E+00
      21     1     1     2   134   133  6.759722113E+00  2.050302035E+02  5.278534301E+02  5.663146845E+02  0.000000000E+00  0.00000E+00  9.000E+00
</event>
<event>
      5   1006  1.00000E+00  7.98150E+01  0.00000E+00  0.00000E+00
      21    -1     0     0   132   133  0.000000000E+00  0.000000000E+00  1.585064000E+02  1.585064000E+02  0.000000000E+00  0.00000E+00  9.000E+00
       2    -1     0     0   133     0  0.000000000E+00  0.000000000E+00 -1.987226256E+03  1.987226256E+03  0.000000000E+00  0.00000E+00  9.000E+00
       6     1     1     2   132     0  2.550072110E+01 -6.510693583E+01 -3.243774125E+02  3.732973421E+02  1.710000000E+02  0.00000E+00  9.000E+00
      -6     1     1     2     0   142 -1.044708049E+02  7.668980749E+01  4.649858204E+01  2.195417814E+02  1.710000000E+02  0.00000E+00  9.000E+00
       2     1     1     2   142     0  7.897008382E+01 -1.158287166E+01 -1.550841025E+03  1.552893533E+03  0.000000000E+00  0.00000E+00  9.000E+00
</event>
<event>
      5   1006  1.00000E+00  1.27133E+01  0.00000E+00  0.00000E+00
      21    -1     0     0   134   135  0.000000000E+00  0.000000000E+00  1.189409655E+03  1.189409655E+03  0.000000000E+00  0.00000E+00  9.000E+00
      21    -1     0     0   132   133  0.000000000E+00  0.000000000E+00 -3.699732976E+01  3.699732976E+01  0.000000000E+00  0.00000E+00  9.000E+00
       6     1     1     2   132     0 -6.069380270E+01 -2.186485741E+01  3.004035963E+02  3.516320952E+02  1.710000000E+02  0.00000E+00  9.000E+00
      -6     1     1     2     0   135  6.387210024E+01  9.555280514E+00  7.488673231E+02  7.708529148E+02  1.710000000E+02  0.00000E+00  9.000E+00
      21     1     1     2   134   133 -3.178297545E+00  1.230957690E+01  1.031414059E+02  1.039219749E+02  0.000000000E+00  0.00000E+00  9.000E+00
</event>
<event>
      5   1006  1.00000E+00  1.75886E+01  0.00000E+00  0.00000E+00
      21    -1     0     0   132   133  0.000000000E+00  0.000000000E+00  5.510757536E+01  5.510757536E+01  0.000000000E+00  0.00000E+00  9.000E+00
       2    -1     0     0   133     0  0.000000000E+00  0.000000000E+00 -1.068341381E+03  1.068341381E+03  0.000000000E+00  0.00000E+00  9.000E+00
       6     1     1     2   132     0 -6.406797180E+01 -3.986220068E+01 -3.958910654E+02  4.377949700E+02  1.710000000E+02  0.00000E+00  9.000E+00
      -6     1     1     2     0   142  5.559091318E+01  5.527316676E+01 -6.340672872E+02  6.613832454E+02  1.710000000E+02  0.00000E+00  9.000E+00
       2     1     1     2   142     0  8.477058624E+00 -1.541096608E+01  1.672454696E+01  2.427074102E+01  0.000000000E+00  0.00000E+00  9.000E+00
</event>
<event>
      5   1006  1.00000E+00  3.03192E+01  0.00000E+00  0.00000E+00
      21    -1     0     0   134   135  0.000000000E+00  0.000000000E+00  2.948256065E+02  2.948256065E+02  0.000000000E+00  0.00000E+00  9.000E+00
      21    -1     0     0   132   133  0.000000000E+00  0.000000000E+00 -2.978371345E+02  2.978371345E+02  0.000000000E+00  0.00000E+00  9.000E+00
       6     1     1     2   132     0  8.935751364E+01  9.382107844E+00 -1.376467026E+02  2.371927569E+02  1.710000000E+02  0.00000E+00  9.000E+00
      -6     1     1     2     0   135 -6.653314997E+01  1.057547955E+01  2.071147985E+02  2.769043889E+02  1.710000000E+02  0.00000E+00  9.000E+00
      21     1     1     2   134   133 -2.282436367E+01 -1.995758739E+01 -7.247962388E+01  7.856559520E+01  0.000000000E+00  0.00000E+00  9.000E+00
</event>
<event>
      5   1006  1.00000E+00  1.19214E+02  0.00000E+00  0.00000E+00
      21    -1     0     0   132   133  0.000000000E+00  0.000000000E+00  9.728301772E+01  9.728301772E+01  0.000000000E+00  0.00000E+00  9.000E+00
       1    -1     0     0   133     0  0.000000000E+00  0.000000000E+00 -1.007536366E+03  1.007536366E+03  0.000000000E+00  0.00000E+00  9.000E+00
       6     1     1     2   132     0 -3.439460174E+01 -4.945565682E+01 -1.686764153E+02  2.476319521E+02  1.710000000E+02  0.00000E+00  9.000E+00
      -6     1     1     2     0   142  3.131020330E+01  1.686292515E+02 -2.375168389E+02  3.392217594E+02  1.710000000E+02  0.00000E+00  9.000E+00
       1     1     1     2   142     0  3.084398441E+00 -1.191735947E+02 -5.040600941E+02  5.179656723E+02  0.000000000E+00  0.00000E+00  9.000E+00
</event>
<event>
      5   1006  1.00000E+00  5.54608E+01  0.00000E+00  0.00000E+00
      21    -1     0     0   134   135  0.000000000E+00  0.000000000E+00  2.354828753E+03  2.354828753E+03  0.000000000E+00  0.00000E+00  9.000E+00
      21    -1     0     0   132   133  0.000000000E+00  0.000000000E+00 -7.875097087E+01  7.875097087E+01  0.000000000E+00  0.00000E+00  9.000E+00
       6     1     1     2   132     0  1.272625960E+02  7.898104058E+00  1.283319212E+02  2.489341889E+02  1.710000000E+02  0.00000E+00  9.000E+00
      -6     1     1     2     0   135 -8.609179480E+01  2.926194553E+01  2.106860218E+03  2.115743141E+03  1.710000000E+02  0.00000E+00  9.000E+00
      21     1     1     2   134   133 -4.117080124E+01 -3.716004959E+01  4.088564288E+01  6.890239440E+01  0.000000000E+00  0.00000E+00  9.000E+00
</event>
<event>
      5   1006  1.00000E+00  8.55177E+01  0.00000E+00  0.00000E+00
      21    -1     0     0   134   135  0.000000000E+00  0.000000000E+00  1.458053354E+02  1.458053354E+02  0.000000000E+00  0.00000E+00  9.000E+00
      21    -1     0     0   132   133  0.000000000E+00  0.000000000E+00 -4.968498212E+02  4.968498212E+02  0.000000000E+00  0.00000E+00  9.000E+00
       6     1     1     2   132     0  6.893809408E+00  4.897900300E+01 -3.229044269E+02  3.687204039E+02  1.710000000E+02  0.00000E+00  9.000E+00
      -6     1     1     2     0   135  5.323807090E+01  1.182755288E+01 -4.870969056E+01  1.859780018E+02  1.710000000E+02  0.00000E+00  9.000E+00
      21     1     1     2   134   133 -6.013188031E+01 -6.080655588E+01  2.056963177E+01  8.795675084E+01  0.000000000E+00  0.00000E+00  9.000E+00
</event>
<event>
      5   1006  1.00000E+00  9.33054E+00  0.00000E+00  0.00000E+00
       1    -1     0     0   132     0  0.000000000E+00  0.000000000E+00  1.935124770E+03  1.935124770E+03  0.000000000E+00  0.00000E+00  9.000E+00
      -1    -1     0     0     0   142  0.000000000E+00  0.000000000E+00 -2.297374663E+01  2.297374663E+01  0.000000000E+00  0.00000E+00  9.000E+00
       6     1     1     2   132     0 -2.838762857E+01  5.267721844E+01  5.019891764E+02  5.336805037E+02  1.710000000E+02  0.00000E+00  9.000E+00
      -6     1     1     2     0   143  1.915854893E+01 -5.404947187E+01  1.395030120E+03  1.406640832E+03  1.710000000E+02  0.00000E+00  9.000E+00
      21     1     1     2   143   142  9.229079644E+00  1.372253434E+00  1.513172709E+01  1.777718075E+01  0.000000000E+00  0.00000E+00  9.000E+00
</event>
<event>
      5   1006  1.00000E+00  2.29021E+01  0.00000E+00  0.00000E+00
      21    -1     0     0   132   133  0.000000000E+00  0.000000000E+00  7.619938539E+02  7.619938539E+02  0.000000000E+00  0.00000E+00  9.000E+00
      21    -1     0     0   134   135  0.000000000E+00  0.000000000E+00 -1.070838882E+03  1.070838882E+03  0.000000000E+00  0.00000E+00  9.000E+00
       6     1     1     2   132     0 -1.184831766E+02  1.164120326E+02  4.570915872E+02  5.155227866E+02  1.710000000E+02  0.00000E+00  9.000E+00
      -6     1     1     2     0   135  1.409067557E+02 -1.210690068E+02  2.177121196E+02  3.333946389E+02  1.710000000E+02  0.00000E+00  9.000E+00
      21     1     1     2   134   133 -2.242357910E+01  4.656974233E+00 -9.836487353E+02  9.839153108E+02  0.000000000E+00  0.00000E+00  9.000E+00
</event>
<event>
      5   1006  1.00000E+00  8.27622E+01  0.00000E+00  0.00000E+00
      21    -1     0     0   134   135  0.000000000E+00  0.000000000E+00  1.503737580E+03  1.503737580E+03  0.000000000E+00  0.00000E+00  9.000E+00
      21    -1     0     0   132   133  0.000000000E+00  0.000000000E+00 -7.113720250E+01  7.113720250E+01  0.000000000E+00  0.00000E+00  9.000E+00
       6     1     1     2   132     0 -6.148656430E+00 -8.336924965E+01  1.016070750E+02  2.157619880E+02  1.710000000E+02  0.00000E+00  9.000E+00
      -6     1     1     2     0   135  7.243598776E+01  3.381549871E+01  1.018572561E+03  1.035915789E+03  1.710000000E+02  0.00000E+00  9.000E+00
      21     1     1     2   134   133 -6.628733133E+01  4.955375094E+01  3.124207416E+02  3.231970054E+02  0.000000000E+00  0.00000E+00  9.000E+00
</event>
<event>
      5   1006  1.00000E+00  1.23601E+02  0.00000E+00  0.00000E+00
      21    -1     0     0   133   134  0.000000000E+00  0.000000000E+00  8.165661040E+02  8.165661040E+02  0.000000000E+00  0.00000E+00  9.000E+00
      21    -1     0     0   134   135  0.000000000E+00  0.000000000E+00 -5.054537626E+02  5.054537626E+02  0.000000000E+00  0.00000E+00  9.000E+00
       6     1     1     2   132     0  9.160490677E+01 -4.784119362E+01 -4.417149084E+01  2.046273671E+02  1.710000000E+02  0.00000E+00  9.000E+00
      -6     1     1     2     0   135  3.192287966E+01  4.359537477E+01 -3.543124410E+02  3.971119902E+02  1.710000000E+02  0.00000E+00  9.000E+00
      21     1     1     2   133   132 -1.235277864E+02  4.245818850E+00  7.095962733E+02  7.202805093E+02  0.000000000E+00  0.00000E+00  9.000E+00
</event>
<event>
      5   1006  1.00000E+00  5.55482E+00  0.00000E+00  0.00000E+00
      21    -1     0     0   132   133  0.000000000E+00  0.000000000E+00  8.260273968E+01  8.260273968E+01  0.000000000E+00  0.00000E+00  9.000E+00
      21    -1     0     0   134   135  0.000000000E+00  0.000000000E+00 -4.857651794E+02  4.857651794E+02  0.000000000E+00  0.00000E+00  9.000E+00
       6     1     1     2   132     0  4.139346445E+01 -5.750388787E+01 -1.099384392E+02  2.152848728E+02  1.710000000E+02  0.00000E+00  9.000E+00
      -6     1     1     2     0   135 -3.604784529E+01  5.599379761E+01 -2.533776980E+02  3.128514190E+02  1.710000000E+02  0.00000E+00  9.000E+00
      21     1     1     2   134   133 -5.345619161E+00  1.510090261E+00 -3.984630243E+01  4.023162729E+01  0.000000000E+00  0.00000E+00  9.000E+00
</event>
<event>
      5   1006  1.00000E+00  2.64643E+01  0.00000E+00  0.00000E+00
      21    -1     0     0   142   143  0.000000000E+00  0.000000000E+00  9.622147207E+02  9.622147207E+02  0.000000000E+00  0.00000E+00  9.000E+00
       1    -1     0     0   132     0  0.000000000E+00  0.000000000E+00 -8.529361242E+02  8.529361242E+02  0.000000000E+00  0.00000E+00  9.000E+00
       6     1     1     2   132     0  1.183664054E+02 -1.124222852E+02  4.167971045E+02  4.791765880E+02  1.710000000E+02  0.00000E+00  9.000E+00
      -6     1     1     2     0   143 -1.437493824E+02  1.199098935E+02  4.827405835E+02  5.452721691E+02  1.710000000E+02  0.00000E+00  9.000E+00
       1     1     1     2   142     0  2.538297694E+01 -7.487608348E+00 -7.902590915E+02  7.907020877E+02  0.000000000E+00  0.00000E+00  9.000E+00
</event>
<event>
      5   1006  1.00000E+00  2.04011E+02  0.00000E+00  0.00000E+00
      21    -1     0     0   134   135  0.000000000E+00  0.000000000E+00  2.208605365E+02  2.208605365E+02  0.000000000E+00  0.00000E+00  9.000E+00
      21    -1     0     0   132   133  0.000000000E+00  0.000000000E+00 -8.274279329E+02  8.274279329E+02  0.000000000E+00  0.00000E+00  9.000E+00
       6     1     1     2   132     0 -1.984527244E+02  1.400451004E+02  9.775663803E+00  2.972081385E+02  1.710000000E+02  0.00000E+00  9.000E+00
      -6     1     1     2     0   135 -5.552448954E+00 -1.384702192E+02 -2.617982823E+02  3.420294899E+02  1.710000000E+02  0.00000E+00  9.000E+00
      21     1     1     2   134   133  2.040051734E+02 -1.574881195E+00 -3.545447779E+02  4.090508410E+02  0.000000000E+00  0.00000E+00  9.000E+00
</event>
<event>
      5   1006  1.00000E+00  1.34105E+02  0.00000E+00  0.00000E+00
      21    -1     0     0   132   133  0.000000000E+00  0.000000000E+00  6.151165292E+02  6.151165292E+02  0.000000000E+00  0.00000E+00  9.000E+00
      21    -1     0     0   134   135  0.000000000E+00  0.000000000E+00 -7.090098721E+02  7.090098721E+02  0.000000000E+00  0.00000E+00  9.000E+00
       6     1     1     2   132     0  1.393577983E+02 -1.724476864E+02  2.115638922E+02  3.509402812E+02  1.710000000E+02  0.00000E+00  9.000E+00
      -6     1     1     2     0   135 -2.705908781E+02  1.448413862E+02 -5.740174470E+02  6.730048142E+02  1.710000000E+02  0.00000E+00  9.000E+00
      21     1     1     2   134   133  1.312330797E+02  2.760630016E+01  2.685602118E+02  3.001813059E+02  0.000000000E+00  0.00000E+00  9.000E+00
</event>
<event>
      5   1006  1.00000E+00  1.16304E+01  0.00000E+00  0.00000E+00
      21    -1     0     0   134   135  0.000000000E+00  0.000000000E+00  1.603006242E+02  1.603006242E+02  0.000000000E+00  0.00000E+00  9.000E+00
      21    -1     0     0   132   133  0.000000000E+00  0.000000000E+00 -5.975122871E+02  5.975122871E+02  0.000000000E+00  0.00000E+00  9.000E+00
       6     1     1     2   132     0 -8.777271641E+01  1.165394238E+02 -4.623363096E+02  5.140830188E+02  1.710000000E+02  0.00000E+00  9.000E+00
      -6     1     1     2     0   135  8.463316535E+01 -1.053408341E+02  2.124440009E+00  2.179563655E+02  1.710000000E+02  0.00000E+00  9.000E+00
      21     1     1     2   134   133  3.139551057E+00 -1.119858970E+01  2.300020664E+01  2.577352707E+01  0.000000000E+00  0.00000E+00  9.000E+00
</event>
<event>
      5   1006  1.00000E+00  3.89076E+01  0.00000E+00  0.00000E+00
      -3    -1     0     0     0   142  0.000000000E+00  0.000000000E+00  1.649284041E+02  1.649284041E+02  0.000000000E+00  0.00000E+00  9.000E+00
       3    -1     0     0   133     0  0.000000000E+00  0.000000000E+00 -4.090288213E+02  4.090288213E+02  0.000000000E+00  0.00000E+00  9.000E+00
       6     1     1     2   132     0  5.272087959E+01 -9.989857095E+01 -1.196017651E+02  2.372863204E+02  1.710000000E+02  0.00000E+00  9.000E+00
      -6     1     1     2     0   142 -7.141312707E+01  1.340218788E+02 -2.527327427E+01  2.300900630E+02  1.710000000E+02  0.00000E+00  9.000E+00
      21     1     1     2   133   132  1.869224748E+01 -3.412330786E+01 -9.922537787E+01  1.065808419E+02  0.000000000E+00  0.00000E+00  9.000E+00
</event>
<event>
      5   1006  1.00000E+00  4.99895E+01  0.00000E+00  0.00000E+00
       1    -1     0     0   132     0  0.000000000E+00  0.000000000E+00  1.348001808E+03  1.348001808E+03  0.000000000E+00  0.00000E+00  9.000E+00
      21    -1     0     0   142   143  0.000000000E+00  0.000000000E+00 -2.246683405E+02  2.246683405E+02  0.000000000E+00  0.00000E+00  9.000E+00
       6     1     1     2   132     0  6.985672800E+01 -4.044129663E+01 -7.532320507E+01  2.035437205E+02  1.710000000E+02  0.00000E+00  9.000E+00
      -6     1     1     2     0   143 -1.190691131E+02  4.922151147E+01  5.062813913E+01  2.200100438E+02  1.710000000E+02  0.00000E+00  9.000E+00
       1     1     1     2   142     0  4.921238513E+01 -8.780214835E+00  1.148028533E+03  1.149116384E+03  0.000000000E+00  0.00000E+00  9.000E+00
</event>
<event>
      5   1006  1.00000E+00  3.29016E+01  0.00000E+00  0.00000E+00
      21    -1     0     0   133   134  0.000000000E+00  0.000000000E+00  1.744779101E+02  1.744779101E+02  0.000000000E+00  0.00000E+00  9.000E+00
      21    -1     0     0   134   135  0.000000000E+00  0.000000000E+00 -1.013484580E+03  1.013484580E+03  0.000000000E+00  0.00000E+00  9.000E+00
       6     1     1     2   132     0  8.338806116E+01  1.843751151E+02 -1.729797487E+02  3.164028212E+02  1.710000000E+02  0.00000E+00  9.000E+00
      -6     1     1     2     0   135 -9.323507655E+01 -2.157686340E+02 -7.375885760E+02  7.927968153E+02  1.710000000E+02  0.00000E+00  9.000E+00
      21     1     1     2   133   132  9.847015388E+00  3.139351889E+01  7.156165458E+01  7.876285385E+01  0.000000000E+00  0.00000E+00  9.000E+00
</event>
<event>
      5   1006  1.00000E+00  6.05346E+01  0.00000E+00  0.00000E+00
      21    -1     0     0   134   135  0.000000000E+00  0.000000000E+00  2.977159935E+02  2.977159935E+02  0.000000000E+00  0.00000E+00  9.000E+00
      21    -1     0     0   132   133  0.000000000E+00  0.000000000E+00 -2.715145965E+02  2.715145965E+02  0.000000000E+00  0.00000E+00  9.000E+00
       6     1     1     2   132     0  8.111268631E+01 -9.658722517E+01 -7.114617623E+01  2.240784201E+02  1.710000000E+02  0.00000E+00  9.000E+00
      -6     1     1     2     0   135 -1.298412468E+02  1.325033574E+02  1.214290855E+02  2.800034141E+02  1.710000000E+02  0.00000E+00  9.000E+00
      21     1     1     2   134   133  4.872856046E+01 -3.591613220E+01 -2.408151225E+01  6.514875585E+01  0.000000000E+00  0.00000E+00  9.000E+00
</event>
<event>
      5   1006  1.00000E+00  1.82989E+00  0.00000E+00  0.00000E+00
       2    -1     0     0   133     0  0.000000000E+00  0.000000000E+00  1.258544828E+03  1.258544828E+03  0.000000000E+00  0.00000E+00  9.000E+00
      -2    -1     0     0     0   142  0.000000000E+00  0.000000000E+00 -3.260468596E+01  3.260468596E+01  0.000000000E+00  0.00000E+00  9.000E+00
       6     1     1     2   132     0  9.259376250E+01  2.321880847E+01  4.617504519E+02  5.015647493E+02  1.710000000E+02  0.00000E+00  9.000E+00
      -6     1     1     2     0   142 -9.404940295E+01 -2.210993165E+01  7.505312565E+02  7.758042963E+02  1.710000000E+02  0.00000E+00  9.000E+00
      21     1     1     2   133   132  1.455640454E+00 -1.108876822E+00  1.365843395E+01  1.378046861E+01  0.000000000E+00  0.00000E+00  9.000E+00
</event>
<event>
      5   1006  1.00000E+00  3.01969E+01  0.00000E+00  0.00000E+00
      21    -1     0     0   134   135  0.000000000E+00  0.000000000E+00  2.809997865E+02  2.809997865E+02  0.000000000E+00  0.00000E+00  9.000E+00
      21    -1     0     0   132   133  0.000000000E+00  0.000000000E+00 -3.286596627E+02  3.286596627E+02  0.000000000E+00  0.00000E+00  9.000E+00
       6     1     1     2   132     0  1.212346839E+02  5.299358720E+01 -1.840791451E+02  2.839582725E+02  1.710000000E+02  0.00000E+00  9.000E+00
      -6     1     1     2     0   135 -1.443546756E+02 -3.356891035E+01  1.681313186E+02  2.819118380E+02  1.710000000E+02  0.00000E+00  9.000E+00
      21     1     1     2   134   133  2.311999174E+01 -1.942467684E+01 -3.171204968E+01  4.378933869E+01  0.000000000E+00  0.00000E+00  9.000E+00
</event>
</LesHouchesEvents>
