<LesHouchesEvents version="1.0">
<!--
File generated with PYTHIA 6.413
-->
<init>
    2212   -2212  9.800000E+02  9.800000E+02     0     0     7     7     3     2
  5.534984E+00  5.591178E-01  1.000000E+00    81
  1.886281E-01  1.333802E-01  1.000000E+00    82
</init>
<event>
     4    81  1.000000E+00  2.779475E+02  7.861651E-03  1.084400E-01
       2   -1    0    0  101    0  0.0000000000E+00  0.0000000000E+00  3.0163058970E+02  3.0163058970E+02  0.0000000000E+00 0. 9.
      -2   -1    0    0    0  102  0.0000000000E+00  0.0000000000E+00 -2.9643457592E+02  2.9643457592E+02  0.0000000000E+00 0. 9.
       6    1    1    2  101    0 -1.3588865269E+02 -1.6715922432E+02  1.1286978960E+02  3.0000050129E+02  1.7564959199E+02 0. 9.
      -6    1    1    2    0  102  1.3588865269E+02  1.6715922432E+02 -1.0767377581E+02  2.9806466432E+02  1.7561597284E+02 0. 9.
#pdf     2   -2  3.0778631602E-01  3.0248426114E-01  2.7794748919E+02  3.1211535198E-01  3.1936736456E-01
</event>
<event>
     4    81  1.000000E+00  2.065406E+02  7.835319E-03  1.128749E-01
       2   -1    0    0  101    0  0.0000000000E+00  0.0000000000E+00  2.8246988013E+02  2.8246988013E+02  0.0000000000E+00 0. 9.
      -2   -1    0    0    0  102  0.0000000000E+00  0.0000000000E+00 -1.6014717863E+02  1.6014717863E+02  0.0000000000E+00 0. 9.
       6    1    1    2  101    0  9.9380529316E-01 -1.1014361322E+02  1.1397944391E+02  2.3586978951E+02  1.7467295380E+02 0. 9.
      -6    1    1    2    0  102 -9.9380529316E-01  1.1014361322E+02  8.3432575852E+00  2.0674726924E+02  1.7476332628E+02 0. 9.
#pdf     2   -2  2.8823457156E-01  1.6341548840E-01  2.0654063446E+02  3.4787465801E-01  5.0757920813E-01
</event>
<event>
     4    81  1.000000E+00  2.466246E+02  7.851027E-03  1.101832E-01
       2   -1    0    0  101    0  0.0000000000E+00  0.0000000000E+00  1.4262288917E+02  1.4262288917E+02  0.0000000000E+00 0. 9.
      -2   -1    0    0    0  102  0.0000000000E+00  0.0000000000E+00 -5.1352040771E+02  5.1352040771E+02  0.0000000000E+00 0. 9.
       6    1    1    2  101    0  1.4633881252E+02 -9.2792819649E+01 -3.2089020614E+02  4.0506735219E+02  1.7630507646E+02 0. 9.
      -6    1    1    2    0  102 -1.4633881252E+02  9.2792819649E+01 -5.0007312393E+01  2.5107594470E+02  1.7467925831E+02 0. 9.
#pdf     2   -2  1.4553356038E-01  5.2400041603E-01  2.4662464812E+02  5.2042143409E-01  8.8548750373E-02
</event>
<event>
     4    81  1.000000E+00  1.787983E+02  7.822592E-03  1.151627E-01
       2   -1    0    0  101    0  0.0000000000E+00  0.0000000000E+00  2.2105865687E+02  2.2105865687E+02  0.0000000000E+00 0. 9.
      -2   -1    0    0    0  102  0.0000000000E+00  0.0000000000E+00 -1.4507161239E+02  1.4507161239E+02  0.0000000000E+00 0. 9.
       6    1    1    2  101    0 -3.3335800581E+01 -1.7063851964E+01  4.8249665545E+01  1.8523217100E+02  1.7487274317E+02 0. 9.
      -6    1    1    2    0  102  3.3335800581E+01  1.7063851964E+01  2.7737378934E+01  1.8089809825E+02  1.7479218837E+02 0. 9.
#pdf     2   -2  2.2557005803E-01  1.4803225754E-01  1.7879833152E+02  4.3840728875E-01  5.2548306372E-01
</event>
<event>
     4    81  1.000000E+00  1.884824E+02  7.827241E-03  1.143154E-01
      -2   -1    0    0    0  101  0.0000000000E+00  0.0000000000E+00  3.1372867160E+02  3.1372867160E+02  0.0000000000E+00 0. 9.
       2   -1    0    0  102    0  0.0000000000E+00  0.0000000000E+00 -1.8703141348E+02  1.8703141348E+02  0.0000000000E+00 0. 9.
      -6    1    1    2    0  101 -2.6234510490E+01 -6.6268526280E+01  2.2057142110E+02  2.8997172034E+02  1.7421848258E+02 0. 9.
       6    1    1    2  102    0  2.6234510490E+01  6.6268526280E+01 -9.3874162986E+01  2.1078836474E+02  1.7475585574E+02 0. 9.
#pdf    -2    2  3.2013129755E-01  1.9084838110E-01  1.8848239045E+02  8.2072137673E-03  3.0218950791E-02
</event>
<event>
     4    81  1.000000E+00  2.787868E+02  7.861920E-03  1.083968E-01
       1   -1    0    0  101    0  0.0000000000E+00  0.0000000000E+00  3.1127258648E+02  3.1127258648E+02  0.0000000000E+00 0. 9.
      -1   -1    0    0    0  102  0.0000000000E+00  0.0000000000E+00 -4.2786592319E+02  4.2786592319E+02  0.0000000000E+00 0. 9.
       6    1    1    2  101    0  1.5851936067E+02 -1.4144078535E+02 -2.9637706693E+02  4.0451792069E+02  1.7510425150E+02 0. 9.
      -6    1    1    2    0  102 -1.5851936067E+02  1.4144078535E+02  1.7978373022E+02  3.3462058897E+02  1.8578176832E+02 0. 9.
#pdf     1   -1  3.1762508824E-01  4.3659788080E-01  2.7878677450E+02  1.0931248713E-01  4.6906840945E-02
</event>
<event>
     4    81  1.000000E+00  2.718222E+02  7.859669E-03  1.087607E-01
       2   -1    0    0  101    0  0.0000000000E+00  0.0000000000E+00  1.9477482117E+02  1.9477482117E+02  0.0000000000E+00 0. 9.
      -2   -1    0    0    0  102  0.0000000000E+00  0.0000000000E+00 -3.7952437379E+02  3.7952437379E+02  0.0000000000E+00 0. 9.
       6    1    1    2  101    0 -1.5675711663E+02  1.3665944260E+02 -8.6220155043E+01  2.8531158724E+02  1.7527175988E+02 0. 9.
      -6    1    1    2    0  102  1.5675711663E+02 -1.3665944260E+02 -9.8529397579E+01  2.8898760773E+02  1.7480617371E+02 0. 9.
#pdf     2   -2  1.9874981752E-01  3.8726976918E-01  2.7182216789E+02  4.6051408027E-01  2.1165105090E-01
</event>
<event>
     4    81  1.000000E+00  2.288329E+02  7.844389E-03  1.113036E-01
       2   -1    0    0  101    0  0.0000000000E+00  0.0000000000E+00  2.3779083434E+02  2.3779083434E+02  0.0000000000E+00 0. 9.
      -2   -1    0    0    0  102  0.0000000000E+00  0.0000000000E+00 -2.4431429301E+02  2.4431429301E+02  0.0000000000E+00 0. 9.
       6    1    1    2  101    0  1.4681741894E+02  1.5840273796E+01 -7.8975938864E+01  2.4224390253E+02  1.7503896884E+02 0. 9.
      -6    1    1    2    0  102 -1.4681741894E+02 -1.5840273796E+01  7.2452480197E+01  2.3986122482E+02  1.7457885469E+02 0. 9.
#pdf     2   -2  2.4264370851E-01  2.4930029899E-01  2.2883285896E+02  4.0802015961E-01  3.9889356566E-01
</event>
<event>
     4    81  1.000000E+00  2.372682E+02  7.847597E-03  1.107591E-01
       2   -1    0    0  101    0  0.0000000000E+00  0.0000000000E+00  1.5972833312E+02  1.5972833312E+02  0.0000000000E+00 0. 9.
      -2   -1    0    0    0  102  0.0000000000E+00  0.0000000000E+00 -4.8250257886E+02  4.8250257886E+02  0.0000000000E+00 0. 9.
       6    1    1    2  101    0 -1.2971169362E+02 -9.6116468150E+01  4.8862529057E+00  2.3820766554E+02  1.7508717127E+02 0. 9.
      -6    1    1    2    0  102  1.2971169362E+02  9.6116468150E+01 -3.2766049865E+02  4.0402324643E+02  1.7265538618E+02 0. 9.
#pdf     2   -2  1.6298809502E-01  4.9234957026E-01  2.3726820029E+02  5.0459197498E-01  1.1225312893E-01
</event>
<event>
     4    81  1.000000E+00  1.937876E+02  7.829690E-03  1.138745E-01
       2   -1    0    0  101    0  0.0000000000E+00  0.0000000000E+00  2.5705177792E+02  2.5705177792E+02  0.0000000000E+00 0. 9.
      -2   -1    0    0    0  102  0.0000000000E+00  0.0000000000E+00 -3.7251723234E+02  3.7251723234E+02  0.0000000000E+00 0. 9.
       6    1    1    2  101    0 -3.3956954134E+00 -7.8930708069E+01 -3.0304848197E+02  3.5925083670E+02  1.7601475455E+02 0. 9.
      -6    1    1    2    0  102  3.3956954134E+00  7.8930708069E+01  1.8758302755E+02  2.7031817356E+02  1.7788461234E+02 0. 9.
#pdf     2   -2  2.6229773257E-01  3.8011962484E-01  1.9378764663E+02  3.8600068378E-01  2.2866960271E-01
</event>
<event>
     4    81  1.000000E+00  1.742299E+02  7.820313E-03  1.155830E-01
       1   -1    0    0  101    0  0.0000000000E+00  0.0000000000E+00  1.5783193380E+02  1.5783193380E+02  0.0000000000E+00 0. 9.
      -1   -1    0    0    0  102  0.0000000000E+00  0.0000000000E+00 -2.0567134209E+02  2.0567134209E+02  0.0000000000E+00 0. 9.
       6    1    1    2  101    0 -3.5199808430E+01  1.8890113877E+00 -7.0896536565E+01  1.9182093869E+02  1.7471794054E+02 0. 9.
      -6    1    1    2    0  102  3.5199808430E+01 -1.8890113877E+00  2.3057128272E+01  1.7168233721E+02  1.6643496888E+02 0. 9.
#pdf     1   -1  1.6105299368E-01  2.0986871642E-01  1.7422994485E+02  2.6092465851E-01  2.0851439895E-01
</event>
<event>
     4    81  1.000000E+00  1.933794E+02  7.829504E-03  1.139078E-01
       2   -1    0    0  101    0  0.0000000000E+00  0.0000000000E+00  3.3498952048E+02  3.3498952048E+02  0.0000000000E+00 0. 9.
      -2   -1    0    0    0  102  0.0000000000E+00  0.0000000000E+00 -1.1319148210E+02  1.1319148210E+02  0.0000000000E+00 0. 9.
       6    1    1    2  101    0 -7.5018673184E+01 -2.7549082183E+01  1.3675440217E+02  2.3617892937E+02  1.7519122955E+02 0. 9.
      -6    1    1    2    0  102  7.5018673184E+01  2.7549082183E+01  8.5043636216E+01  2.1200207320E+02  1.7699069390E+02 0. 9.
#pdf     2   -2  3.4182604131E-01  1.1550151234E-01  1.9337939284E+02  2.7695457823E-01  5.4821153674E-01
</event>
<event>
     4    81  1.000000E+00  2.078435E+02  7.835875E-03  1.127772E-01
       2   -1    0    0  101    0  0.0000000000E+00  0.0000000000E+00  2.7568770153E+02  2.7568770153E+02  0.0000000000E+00 0. 9.
      -2   -1    0    0    0  102  0.0000000000E+00  0.0000000000E+00 -1.5769110566E+02  1.5769110566E+02  0.0000000000E+00 0. 9.
       6    1    1    2  101    0  6.9059284378E+01 -8.8347040003E+01  4.1927608723E+01  2.1258852635E+02  1.7567462232E+02 0. 9.
      -6    1    1    2    0  102 -6.9059284378E+01  8.8347040003E+01  7.6068987142E+01  2.2079028084E+02  1.7432003061E+02 0. 9.
#pdf     2   -2  2.8131398115E-01  1.6090929149E-01  2.0784346811E+02  3.5732914692E-01  5.0991944287E-01
</event>
<event>
     4    81  1.000000E+00  2.620575E+02  7.856417E-03  1.092914E-01
       2   -1    0    0  101    0  0.0000000000E+00  0.0000000000E+00  1.8674172254E+02  1.8674172254E+02  0.0000000000E+00 0. 9.
      -2   -1    0    0    0  102  0.0000000000E+00  0.0000000000E+00 -4.7368291110E+02  4.7368291110E+02  0.0000000000E+00 0. 9.
       6    1    1    2  101    0  9.6454412914E+01  1.6941976172E+02  1.2899760702E+01  2.6187889782E+02  1.7437787665E+02 0. 9.
      -6    1    1    2    0  102 -9.6454412914E+01 -1.6941976172E+02 -2.9984094927E+02  3.9854573582E+02  1.7586244412E+02 0. 9.
#pdf     2   -2  1.9055277810E-01  4.8334990929E-01  2.6205749558E+02  4.7145458553E-01  1.1778319099E-01
</event>
<event>
     4    81  1.000000E+00  2.289218E+02  7.844423E-03  1.112978E-01
       2   -1    0    0  101    0  0.0000000000E+00  0.0000000000E+00  3.3158438516E+02  3.3158438516E+02  0.0000000000E+00 0. 9.
      -2   -1    0    0    0  102  0.0000000000E+00  0.0000000000E+00 -1.5834891471E+02  1.5834891471E+02  0.0000000000E+00 0. 9.
       6    1    1    2  101    0  1.4816489683E+02  1.4413485095E+01  9.7570264713E+01  2.4933710714E+02  1.7460942482E+02 0. 9.
      -6    1    1    2    0  102 -1.4816489683E+02 -1.4413485095E+01  7.5665205738E+01  2.4059619273E+02  1.7320715744E+02 0. 9.
#pdf     2   -2  3.3835141343E-01  1.6158052521E-01  2.2892175632E+02  2.7668539818E-01  5.0688925436E-01
</event>
<event>
     4    81  1.000000E+00  2.004625E+02  7.832680E-03  1.133411E-01
       2   -1    0    0  101    0  0.0000000000E+00  0.0000000000E+00  1.3933042302E+02  1.3933042302E+02  0.0000000000E+00 0. 9.
      -2   -1    0    0    0  102  0.0000000000E+00  0.0000000000E+00 -3.0954901507E+02  3.0954901507E+02  0.0000000000E+00 0. 9.
       6    1    1    2  101    0  7.5345806041E+01  6.2163684216E+01 -1.4379844809E+02  2.4680161496E+02  1.7519055154E+02 0. 9.
      -6    1    1    2    0  102 -7.5345806041E+01 -6.2163684216E+01 -2.6420143961E+01  2.0207782313E+02  1.7491743329E+02 0. 9.
#pdf     2   -2  1.4217390104E-01  3.1586634191E-01  2.0046254771E+02  5.2792014530E-01  3.1064450238E-01
</event>
<event>
     4    81  1.000000E+00  2.706496E+02  7.859285E-03  1.088232E-01
       2   -1    0    0  101    0  0.0000000000E+00  0.0000000000E+00  4.4275820512E+02  4.4275820512E+02  0.0000000000E+00 0. 9.
      -2   -1    0    0    0  102  0.0000000000E+00  0.0000000000E+00 -3.6933769200E+02  3.6933769200E+02  0.0000000000E+00 0. 9.
       6    1    1    2  101    0 -7.5404198737E+01  1.9368639303E+02  3.3833625448E+02  4.3254578276E+02  1.7153489747E+02 0. 9.
      -6    1    1    2    0  102  7.5404198737E+01 -1.9368639303E+02 -2.6491574137E+02  3.7955011437E+02  1.7515058453E+02 0. 9.
#pdf     2   -2  4.5179408686E-01  3.7687519592E-01  2.7064956344E+02  1.4457344456E-01  2.2394692914E-01
</event>
<event>
     4    81  1.000000E+00  2.108578E+02  7.837148E-03  1.125542E-01
       2   -1    0    0  101    0  0.0000000000E+00  0.0000000000E+00  1.3234854783E+02  1.3234854783E+02  0.0000000000E+00 0. 9.
      -2   -1    0    0    0  102  0.0000000000E+00  0.0000000000E+00 -3.4034974283E+02  3.4034974283E+02  0.0000000000E+00 0. 9.
       6    1    1    2  101    0 -1.0426259596E+02  5.1907638019E+01 -7.6773313018E+01  2.2379677391E+02  1.7500217890E+02 0. 9.
      -6    1    1    2    0  102  1.0426259596E+02 -5.1907638019E+01 -1.3122788198E+02  2.4890151675E+02  1.7653927673E+02 0. 9.
#pdf     2   -2  1.3504953860E-01  3.4729565595E-01  2.1085784602E+02  5.3266546626E-01  2.6735756487E-01
</event>
<event>
     4    81  1.000000E+00  1.947900E+02  7.830146E-03  1.137929E-01
       1   -1    0    0  101    0  0.0000000000E+00  0.0000000000E+00  1.0116976485E+02  1.0116976485E+02  0.0000000000E+00 0. 9.
      -1   -1    0    0    0  102  0.0000000000E+00  0.0000000000E+00 -4.9676347317E+02  4.9676347317E+02  0.0000000000E+00 0. 9.
       6    1    1    2  101    0 -1.5362770588E+01 -8.2104022410E+01 -3.4619526945E+02  3.9749467719E+02  1.7656094865E+02 0. 9.
      -6    1    1    2    0  102  1.5362770588E+01  8.2104022410E+01 -4.9398438867E+01  2.0043856083E+02  1.7538051684E+02 0. 9.
#pdf     1   -1  1.0323445393E-01  5.0690150323E-01  1.9478996985E+02  3.2907551686E-01  2.7151826992E-02
</event>
<event>
     4    81  1.000000E+00  2.352147E+02  7.846826E-03  1.108894E-01
       2   -1    0    0  101    0  0.0000000000E+00  0.0000000000E+00  2.2383022120E+02  2.2383022120E+02  0.0000000000E+00 0. 9.
      -2   -1    0    0    0  102  0.0000000000E+00  0.0000000000E+00 -3.1923914281E+02  3.1923914281E+02  0.0000000000E+00 0. 9.
       6    1    1    2  101    0 -9.3742032590E+01 -1.2535655069E+02  8.1228280582E+01  2.4930370453E+02  1.7621711055E+02 0. 9.
      -6    1    1    2    0  102  9.3742032590E+01  1.2535655069E+02 -1.7663720219E+02  2.9376565949E+02  1.7491634579E+02 0. 9.
#pdf     2   -2  2.2839818490E-01  3.2575422736E-01  2.3521465199E+02  4.2644183668E-01  2.9260166383E-01
</event>
<event>
     4    81  1.000000E+00  1.870843E+02  7.826585E-03  1.144342E-01
       2   -1    0    0  101    0  0.0000000000E+00  0.0000000000E+00  1.5853152602E+02  1.5853152602E+02  0.0000000000E+00 0. 9.
      -2   -1    0    0    0  102  0.0000000000E+00  0.0000000000E+00 -3.4154401040E+02  3.4154401040E+02  0.0000000000E+00 0. 9.
       6    1    1    2  101    0  3.9163349908E+01  5.3926953306E+01 -2.4018399558E+02  3.0444487752E+02  1.7480402583E+02 0. 9.
      -6    1    1    2    0  102 -3.9163349908E+01 -5.3926953306E+01  5.7171511210E+01  1.9563065890E+02  1.7481672901E+02 0. 9.
#pdf     2   -2  1.6176686329E-01  3.4851429633E-01  1.8708434558E+02  5.1167510932E-01  2.6919035955E-01
</event>
<event>
     4    81  1.000000E+00  1.669828E+02  7.816574E-03  1.162798E-01
       1   -1    0    0  101    0  0.0000000000E+00  0.0000000000E+00  1.1468948281E+02  1.1468948281E+02  0.0000000000E+00 0. 9.
      -1   -1    0    0    0  102  0.0000000000E+00  0.0000000000E+00 -4.3837256713E+02  4.3837256713E+02  0.0000000000E+00 0. 9.
       6    1    1    2  101    0  1.0772425638E+01 -6.9329418221E+01 -3.6201933238E+02  4.0948849786E+02  1.7804555451E+02 0. 9.
      -6    1    1    2    0  102 -1.0772425638E+01  6.9329418221E+01  3.8336248062E+01  1.4357355208E+02  1.1925218470E+02 0. 9.
#pdf     1   -1  1.1703008450E-01  4.4731894605E-01  1.6698282817E+02  3.1354506748E-01  4.6472724474E-02
</event>
<event>
     4    81  1.000000E+00  2.834089E+02  7.863383E-03  1.081616E-01
       2   -1    0    0  101    0  0.0000000000E+00  0.0000000000E+00  1.8699538856E+02  1.8699538856E+02  0.0000000000E+00 0. 9.
      -2   -1    0    0    0  102  0.0000000000E+00  0.0000000000E+00 -5.4106463328E+02  5.4106463328E+02  0.0000000000E+00 0. 9.
       6    1    1    2  101    0  9.0408107763E+01  2.0174956780E+02 -3.4326217205E+02  4.4634413683E+02  1.8032652513E+02 0. 9.
      -6    1    1    2    0  102 -9.0408107763E+01 -2.0174956780E+02 -1.0807072669E+01  2.8171588501E+02  1.7427143482E+02 0. 9.
#pdf     2   -2  1.9081162098E-01  5.5210676865E-01  2.8340890668E+02  4.6904934598E-01  6.9301920008E-02
</event>
<event>
     4    81  1.000000E+00  2.263982E+02  7.843441E-03  1.114656E-01
       2   -1    0    0  101    0  0.0000000000E+00  0.0000000000E+00  1.4606371827E+02  1.4606371827E+02  0.0000000000E+00 0. 9.
      -2   -1    0    0    0  102  0.0000000000E+00  0.0000000000E+00 -3.5486102856E+02  3.5486102856E+02  0.0000000000E+00 0. 9.
       6    1    1    2  101    0 -1.4448585216E+02  2.0098917152E+01 -7.8609203910E+01  2.4103169882E+02  1.7503355379E+02 0. 9.
      -6    1    1    2    0  102  1.4448585216E+02 -2.0098917152E+01 -1.3018810638E+02  2.5989304801E+02  1.7121718785E+02 0. 9.
#pdf     2   -2  1.4904461048E-01  3.6210309037E-01  2.2639824012E+02  5.1916622807E-01  2.4658329430E-01
</event>
<event>
     4    81  1.000000E+00  3.240846E+02  7.875340E-03  1.062804E-01
       2   -1    0    0  101    0  0.0000000000E+00  0.0000000000E+00  3.3902948463E+02  3.3902948463E+02  0.0000000000E+00 0. 9.
      -2   -1    0    0    0  102  0.0000000000E+00  0.0000000000E+00 -3.1121221653E+02  3.1121221653E+02  0.0000000000E+00 0. 9.
       6    1    1    2  101    0 -2.6782740143E+02 -5.1323461405E+01 -8.0252604415E+00  3.2378283395E+02  1.7437116765E+02 0. 9.
      -6    1    1    2    0  102  2.6782740143E+02  5.1323461405E+01  3.5842528536E+01  3.2645886721E+02  1.7585531122E+02 0. 9.
#pdf     2   -2  3.4594845370E-01  3.1756348626E-01  3.2408457529E+02  2.5747251547E-01  2.9460873427E-01
</event>
<event>
     4    81  1.000000E+00  1.932028E+02  7.829424E-03  1.139223E-01
       2   -1    0    0  101    0  0.0000000000E+00  0.0000000000E+00  2.2641744710E+02  2.2641744710E+02  0.0000000000E+00 0. 9.
      -2   -1    0    0    0  102  0.0000000000E+00  0.0000000000E+00 -1.8900794054E+02  1.8900794054E+02  0.0000000000E+00 0. 9.
       6    1    1    2  101    0 -7.1400080065E+01 -3.9476514526E+01 -5.5610755936E+01  2.0026926431E+02  1.7423792762E+02 0. 9.
      -6    1    1    2    0  102  7.1400080065E+01  3.9476514526E+01  9.3020262502E+01  2.1515612333E+02  1.7601994642E+02 0. 9.
#pdf     2   -2  2.3103821133E-01  1.9286524545E-01  1.9320275648E+02  4.2880737129E-01  4.7708262099E-01
</event>
<event>
     4    81  1.000000E+00  1.854682E+02  7.825820E-03  1.145730E-01
       2   -1    0    0  101    0  0.0000000000E+00  0.0000000000E+00  1.3408165903E+02  1.3408165903E+02  0.0000000000E+00 0. 9.
      -2   -1    0    0    0  102  0.0000000000E+00  0.0000000000E+00 -2.6092074585E+02  2.6092074585E+02  0.0000000000E+00 0. 9.
       6    1    1    2  101    0 -3.8100815115E+01  6.2535297058E+01 -3.5772412991E+01  1.8415455534E+02  1.6513903001E+02 0. 9.
      -6    1    1    2    0  102  3.8100815115E+01 -6.2535297058E+01 -9.1066673824E+01  2.1084784953E+02  1.7550310847E+02 0. 9.
#pdf     2   -2  1.3681801942E-01  2.6624565903E-01  1.8546820657E+02  5.3396707641E-01  3.8187933548E-01
</event>
<event>
     4    81  1.000000E+00  1.976988E+02  7.831454E-03  1.135592E-01
       1   -1    0    0  101    0  0.0000000000E+00  0.0000000000E+00  2.7061593047E+02  2.7061593047E+02  0.0000000000E+00 0. 9.
      -1   -1    0    0    0  102  0.0000000000E+00  0.0000000000E+00 -1.5355225835E+02  1.5355225835E+02  0.0000000000E+00 0. 9.
       6    1    1    2  101    0 -7.0831156082E+01  5.9125190956E+01  6.8210187589E+00  1.9776122846E+02  1.7478597285E+02 0. 9.
      -6    1    1    2    0  102  7.0831156082E+01 -5.9125190956E+01  1.1024265336E+02  2.2640696037E+02  1.7491091506E+02 0. 9.
#pdf     1   -1  2.7613870456E-01  1.5668597791E-01  1.9769881925E+02  1.4528838693E-01  2.6387113385E-01
</event>
<event>
     4    81  1.000000E+00  1.846005E+02  7.825406E-03  1.146482E-01
       2   -1    0    0  101    0  0.0000000000E+00  0.0000000000E+00  5.2612134717E+02  5.2612134717E+02  0.0000000000E+00 0. 9.
      -2   -1    0    0    0  102  0.0000000000E+00  0.0000000000E+00 -6.5244521284E+01  6.5244521284E+01  0.0000000000E+00 0. 9.
       6    1    1    2  101    0  4.5001510908E+01  4.0404524412E+01  2.0596390964E+02  2.7697995232E+02  1.7504028204E+02 0. 9.
      -6    1    1    2    0  102 -4.5001510908E+01 -4.0404524412E+01  2.5491291624E+02  3.1438591613E+02  1.7378218498E+02 0. 9.
#pdf     2   -2  5.3685851752E-01  6.6576042126E-02  1.8460047577E+02  8.4060469311E-02  5.7330100533E-01
</event>
<event>
     4    81  1.000000E+00  1.972589E+02  7.831258E-03  1.135942E-01
       1   -1    0    0  101    0  0.0000000000E+00  0.0000000000E+00  2.7862914834E+02  2.7862914834E+02  0.0000000000E+00 0. 9.
      -1   -1    0    0    0  102  0.0000000000E+00  0.0000000000E+00 -1.5782998146E+02  1.5782998146E+02  0.0000000000E+00 0. 9.
       6    1    1    2  101    0  9.8189171764E+01 -7.9246789741E+00  1.3357996153E+02  2.3527121220E+02  1.6674838283E+02 0. 9.
      -6    1    1    2    0  102 -9.8189171764E+01  7.9246789741E+00 -1.2780794644E+01  2.0118791760E+02  1.7495518137E+02 0. 9.
#pdf     1   -1  2.8431545749E-01  1.6105100149E-01  1.9725892457E+02  1.3865018067E-01  2.5894341128E-01
</event>
<event>
     4    81  1.000000E+00  2.457268E+02  7.850704E-03  1.102373E-01
       2   -1    0    0  101    0  0.0000000000E+00  0.0000000000E+00  3.9004131953E+02  3.9004131953E+02  0.0000000000E+00 0. 9.
      -2   -1    0    0    0  102  0.0000000000E+00  0.0000000000E+00 -1.5483726206E+02  1.5483726206E+02  0.0000000000E+00 0. 9.
       6    1    1    2  101    0 -1.6403217170E+02  5.4025075638E+01  1.2113764608E+02  2.7354134286E+02  1.7414153671E+02 0. 9.
      -6    1    1    2    0  102  1.6403217170E+02 -5.4025075638E+01  1.1406641139E+02  2.7133723873E+02  1.7546363943E+02 0. 9.
#pdf     2   -2  3.9800134646E-01  1.5799720618E-01  2.4572676683E+02  2.0184191577E-01  5.0875096321E-01
</event>
<event>
     4    82  1.000000E+00  2.006785E+02  7.832775E-03  1.133243E-01
      21   -1    0    0  101  102  0.0000000000E+00  0.0000000000E+00  2.6761096685E+02  2.6761096685E+02  0.0000000000E+00 0. 9.
      21   -1    0    0  103  101  0.0000000000E+00  0.0000000000E+00 -1.8448976123E+02  1.8448976123E+02  0.0000000000E+00 0. 9.
       6    1    1    2  103    0  1.7598212978E+01  9.3192504367E+01 -5.5656028978E+01  2.0730311322E+02  1.7573402408E+02 0. 9.
      -6    1    1    2    0  102 -1.7598212978E+01 -9.3192504367E+01  1.3877723460E+02  2.4479761486E+02  1.7796688296E+02 0. 9.
#pdf    21   21  2.7307241515E-01  1.8825485840E-01  2.0067852226E+02  8.7100627434E-02  2.2894138617E-01
</event>
<event>
     4    81  1.000000E+00  1.866681E+02  7.826388E-03  1.144698E-01
       1   -1    0    0  101    0  0.0000000000E+00  0.0000000000E+00  3.7030216375E+02  3.7030216375E+02  0.0000000000E+00 0. 9.
      -1   -1    0    0    0  102  0.0000000000E+00  0.0000000000E+00 -1.0595977536E+02  1.0595977536E+02  0.0000000000E+00 0. 9.
       6    1    1    2  101    0 -4.3463313798E+01  5.4853435221E+01  5.3679374534E+01  1.9607381406E+02  1.7511569407E+02 0. 9.
      -6    1    1    2    0  102  4.3463313798E+01 -5.4853435221E+01  2.1066301385E+02  2.8018812505E+02  1.7096350784E+02 0. 9.
#pdf     1   -1  3.7785935076E-01  1.0812221976E-01  1.8666808153E+02  7.6879316200E-02  3.2327210455E-01
</event>
<event>
     4    81  1.000000E+00  1.774134E+02  7.821907E-03  1.152886E-01
       2   -1    0    0  101    0  0.0000000000E+00  0.0000000000E+00  2.2366362452E+02  2.2366362452E+02  0.0000000000E+00 0. 9.
      -2   -1    0    0    0  102  0.0000000000E+00  0.0000000000E+00 -1.4659231206E+02  1.4659231206E+02  0.0000000000E+00 0. 9.
       6    1    1    2  101    0  2.0028474631E+01 -1.6927226315E+01  1.4377375858E+00  1.7710335006E+02  1.7514525037E+02 0. 9.
      -6    1    1    2    0  102 -2.0028474631E+01  1.6927226315E+01  7.5633574881E+01  1.9315258652E+02  1.7578342710E+02 0. 9.
#pdf     2   -2  2.2822818829E-01  1.4958399189E-01  1.7741337822E+02  4.3514212425E-01  5.2430422153E-01
</event>
<event>
     4    81  1.000000E+00  1.826912E+02  7.824490E-03  1.148152E-01
       2   -1    0    0  101    0  0.0000000000E+00  0.0000000000E+00  2.4229187979E+02  2.4229187979E+02  0.0000000000E+00 0. 9.
      -2   -1    0    0    0  102  0.0000000000E+00  0.0000000000E+00 -1.5293538635E+02  1.5293538635E+02  0.0000000000E+00 0. 9.
       6    1    1    2  101    0 -6.8740365483E+01  2.8110199579E+01 -1.6389392622E+01  1.9051870670E+02  1.7468069225E+02 0. 9.
      -6    1    1    2    0  102  6.8740365483E+01 -2.8110199579E+01  1.0574588606E+02  2.0470855944E+02  1.5877021358E+02 0. 9.
#pdf     2   -2  2.4723661203E-01  1.5605651668E-01  1.8269122489E+02  4.0862546883E-01  5.1772743556E-01
</event>
<event>
     4    81  1.000000E+00  1.858442E+02  7.825998E-03  1.145406E-01
       2   -1    0    0  101    0  0.0000000000E+00  0.0000000000E+00  2.2372207838E+02  2.2372207838E+02  0.0000000000E+00 0. 9.
      -2   -1    0    0    0  102  0.0000000000E+00  0.0000000000E+00 -1.8628740512E+02  1.8628740512E+02  0.0000000000E+00 0. 9.
       6    1    1    2  101    0  6.0195853085E+01  1.1218849591E+01 -6.6138565276E+01  1.9713233548E+02  1.7532097581E+02 0. 9.
      -6    1    1    2    0  102 -6.0195853085E+01 -1.1218849591E+01  1.0357323853E+02  2.1287714802E+02  1.7561281586E+02 0. 9.
#pdf     2   -2  2.2828783508E-01  1.9008918890E-01  1.8584417166E+02  4.3364401401E-01  4.8141929769E-01
</event>
<event>
     4    81  1.000000E+00  1.949728E+02  7.830229E-03  1.137781E-01
       2   -1    0    0  101    0  0.0000000000E+00  0.0000000000E+00  1.3028858460E+02  1.3028858460E+02  0.0000000000E+00 0. 9.
      -2   -1    0    0    0  102  0.0000000000E+00  0.0000000000E+00 -3.1228943583E+02  3.1228943583E+02  0.0000000000E+00 0. 9.
       6    1    1    2  101    0 -2.3555699842E-01  8.5827864700E+01 -3.4336731287E+01  1.9810702203E+02  1.7521673212E+02 0. 9.
      -6    1    1    2    0  102  2.3555699842E-01 -8.5827864700E+01 -1.4766411994E+02  2.4447099840E+02  1.7491397571E+02 0. 9.
#pdf     2   -2  1.3294753531E-01  3.1866268962E-01  1.9497276451E+02  5.3592458241E-01  3.0767190708E-01
</event>
<event>
     4    81  1.000000E+00  1.890139E+02  7.827490E-03  1.142705E-01
       2   -1    0    0  101    0  0.0000000000E+00  0.0000000000E+00  2.8561118018E+02  2.8561118018E+02  0.0000000000E+00 0. 9.
      -2   -1    0    0    0  102  0.0000000000E+00  0.0000000000E+00 -2.5975761176E+02  2.5975761176E+02  0.0000000000E+00 0. 9.
       6    1    1    2  101    0  3.3782683101E+01 -6.3603299796E+01  2.0927805333E+02  2.8219291020E+02  1.7506823110E+02 0. 9.
      -6    1    1    2    0  102 -3.3782683101E+01  6.3603299796E+01 -1.8342448491E+02  2.6317588174E+02  1.7444298106E+02 0. 9.
#pdf     2   -2  2.9143997978E-01  2.6505878751E-01  1.8901393868E+02  3.4614260930E-01  3.8293882488E-01
</event>
<event>
     4    81  1.000000E+00  2.379135E+02  7.847838E-03  1.107185E-01
       2   -1    0    0  101    0  0.0000000000E+00  0.0000000000E+00  2.9309784972E+02  2.9309784972E+02  0.0000000000E+00 0. 9.
      -2   -1    0    0    0  102  0.0000000000E+00  0.0000000000E+00 -2.5407445485E+02  2.5407445485E+02  0.0000000000E+00 0. 9.
       6    1    1    2  101    0  1.6218368484E+02 -1.2425364252E+00  1.5349231415E+02  2.8280283101E+02  1.7352941883E+02 0. 9.
      -6    1    1    2    0  102 -1.6218368484E+02  1.2425364252E+00 -1.1446891928E+02  2.6436947356E+02  1.7459379583E+02 0. 9.
#pdf     2   -2  2.9907943849E-01  2.5925964781E-01  2.3791346724E+02  3.2857818257E-01  3.8395222091E-01
</event>
<event>
     4    81  1.000000E+00  2.328946E+02  7.845948E-03  1.110383E-01
       1   -1    0    0  101    0  0.0000000000E+00  0.0000000000E+00  2.1718793265E+02  2.1718793265E+02  0.0000000000E+00 0. 9.
      -1   -1    0    0    0  102  0.0000000000E+00  0.0000000000E+00 -2.6662662640E+02  2.6662662640E+02  0.0000000000E+00 0. 9.
       6    1    1    2  101    0 -5.3756662205E+01 -1.4236612216E+02 -8.5655991830E+01  2.4861999946E+02  1.7696627850E+02 0. 9.
      -6    1    1    2    0  102  5.3756662205E+01  1.4236612216E+02  3.6217298078E+01  2.3519455959E+02  1.7563284632E+02 0. 9.
#pdf     1   -1  2.2162033944E-01  2.7206798612E-01  2.3289455057E+02  1.9216853485E-01  1.4634861625E-01
</event>
<event>
     4    81  1.000000E+00  2.300652E+02  7.844864E-03  1.112225E-01
       2   -1    0    0  101    0  0.0000000000E+00  0.0000000000E+00  1.2946905596E+02  1.2946905596E+02  0.0000000000E+00 0. 9.
      -2   -1    0    0    0  102  0.0000000000E+00  0.0000000000E+00 -4.3889232677E+02  4.3889232677E+02  0.0000000000E+00 0. 9.
       6    1    1    2  101    0 -1.4906212413E+02 -1.2176726766E+01 -8.0127991898E+01  2.4331829690E+02  1.7440042717E+02 0. 9.
      -6    1    1    2    0  102  1.4906212413E+02  1.2176726766E+01 -2.2929527891E+02  3.2504308582E+02  1.7523953089E+02 0. 9.
#pdf     2   -2  1.3211128159E-01  4.4784931303E-01  2.3006518775E+02  5.3319785723E-01  1.5149428281E-01
</event>
<event>
     4    81  1.000000E+00  1.965559E+02  7.830943E-03  1.136505E-01
       2   -1    0    0  101    0  0.0000000000E+00  0.0000000000E+00  6.1119783775E+01  6.1119783775E+01  0.0000000000E+00 0. 9.
      -2   -1    0    0    0  102  0.0000000000E+00  0.0000000000E+00 -6.6344920613E+02  6.6344920613E+02  0.0000000000E+00 0. 9.
       6    1    1    2  101    0  1.7942124912E+01 -2.4315817860E+01 -3.5944211810E+02  4.0076327136E+02  1.7464072995E+02 0. 9.
      -6    1    1    2    0  102 -1.7942124912E+01  2.4315817860E+01 -2.4288730426E+02  3.2380571855E+02  2.1199698572E+02 0. 9.
#pdf     2   -2  6.2367126301E-02  6.7698898585E-01  1.9655592614E+02  5.7524710422E-01  2.1473828827E-02
</event>
<event>
     4    81  1.000000E+00  1.907659E+02  7.828304E-03  1.141237E-01
       1   -1    0    0  101    0  0.0000000000E+00  0.0000000000E+00  1.5372407433E+02  1.5372407433E+02  0.0000000000E+00 0. 9.
      -1   -1    0    0    0  102  0.0000000000E+00  0.0000000000E+00 -2.4778594247E+02  2.4778594247E+02  0.0000000000E+00 0. 9.
       6    1    1    2  101    0  3.4461716745E+01  4.9125011365E+01 -8.8585132149E+01  2.0602098232E+02  1.7605806672E+02 0. 9.
      -6    1    1    2    0  102 -3.4461716745E+01 -4.9125011365E+01 -5.4767359904E+00  1.9548903448E+02  1.8597067323E+02 0. 9.
#pdf     1   -1  1.5686130034E-01  2.5284279844E-01  1.9076593968E+02  2.6423379254E-01  1.6591346209E-01
</event>
<event>
     4    81  1.000000E+00  1.805993E+02  7.823475E-03  1.150007E-01
       2   -1    0    0  101    0  0.0000000000E+00  0.0000000000E+00  2.5588789950E+02  2.5588789950E+02  0.0000000000E+00 0. 9.
      -2   -1    0    0    0  102  0.0000000000E+00  0.0000000000E+00 -1.3938564552E+02  1.3938564552E+02  0.0000000000E+00 0. 9.
       6    1    1    2  101    0  4.0567000672E+01  1.4392875337E+01  4.9045282053E-01  1.8074566830E+02  1.7554463723E+02 0. 9.
      -6    1    1    2    0  102 -4.0567000672E+01 -1.4392875337E+01  1.1601180117E+02  2.1452787673E+02  1.7524450199E+02 0. 9.
#pdf     2   -2  2.6111010153E-01  1.4223025053E-01  1.8059931886E+02  3.8985321367E-01  5.3017887107E-01
</event>
<event>
     4    81  1.000000E+00  1.937722E+02  7.829683E-03  1.138757E-01
       2   -1    0    0  101    0  0.0000000000E+00  0.0000000000E+00  1.9591953727E+02  1.9591953727E+02  0.0000000000E+00 0. 9.
      -2   -1    0    0    0  102  0.0000000000E+00  0.0000000000E+00 -2.4732043813E+02  2.4732043813E+02  0.0000000000E+00 0. 9.
       6    1    1    2  101    0  4.2145931134E+01  7.3493513444E+01 -1.3080294867E+02  2.3342149886E+02  1.7377746896E+02 0. 9.
      -6    1    1    2    0  102 -4.2145931134E+01 -7.3493513444E+01  7.9402047805E+01  2.0981847655E+02  1.7476135693E+02 0. 9.
#pdf     2   -2  1.9991789517E-01  2.5236779401E-01  1.9377215054E+02  4.6855165342E-01  3.9974790122E-01
</event>
<event>
     4    81  1.000000E+00  2.114600E+02  7.837400E-03  1.125101E-01
       2   -1    0    0  101    0  0.0000000000E+00  0.0000000000E+00  2.9595419990E+02  2.9595419990E+02  0.0000000000E+00 0. 9.
      -2   -1    0    0    0  102  0.0000000000E+00  0.0000000000E+00 -1.5192584846E+02  1.5192584846E+02  0.0000000000E+00 0. 9.
       6    1    1    2  101    0  9.6625312443E+01  6.8583039725E+01  5.5447395198E+01  2.1877159022E+02  1.7534682977E+02 0. 9.
      -6    1    1    2    0  102 -9.6625312443E+01 -6.8583039725E+01  8.8580956244E+01  2.2910845814E+02  1.7494003384E+02 0. 9.
#pdf     2   -2  3.0199408153E-01  1.5502637598E-01  2.1146003740E+02  3.2807286881E-01  5.1519344618E-01
</event>
<event>
     4    81  1.000000E+00  2.620115E+02  7.856401E-03  1.092939E-01
       2   -1    0    0  101    0  0.0000000000E+00  0.0000000000E+00  1.2429996314E+02  1.2429996314E+02  0.0000000000E+00 0. 9.
      -2   -1    0    0    0  102  0.0000000000E+00  0.0000000000E+00 -5.5257172610E+02  5.5257172610E+02  0.0000000000E+00 0. 9.
       6    1    1    2  101    0  8.2977312402E+01  1.7699750458E+02 -2.2160344054E+02  3.4303315943E+02  1.7421341110E+02 0. 9.
      -6    1    1    2    0  102 -8.2977312402E+01 -1.7699750458E+02 -2.0666832242E+02  3.3383852981E+02  1.7470837842E+02 0. 9.
#pdf     2   -2  1.2683669708E-01  5.6384870010E-01  2.6201148076E+02  5.3472943392E-01  6.3639075023E-02
</event>
<event>
     4    81  1.000000E+00  2.122610E+02  7.837735E-03  1.124517E-01
       2   -1    0    0  101    0  0.0000000000E+00  0.0000000000E+00  5.3878654836E+02  5.3878654836E+02  0.0000000000E+00 0. 9.
      -2   -1    0    0    0  102  0.0000000000E+00  0.0000000000E+00 -8.4375727673E+01  8.4375727673E+01  0.0000000000E+00 0. 9.
       6    1    1    2  101    0  3.6720347408E+01 -1.1382327052E+02  1.9817539359E+02  2.9067695131E+02  1.7582799143E+02 0. 9.
      -6    1    1    2    0  102 -3.6720347408E+01  1.1382327052E+02  2.5623542709E+02  3.3248532472E+02  1.7488789619E+02 0. 9.
#pdf     2   -2  5.4978219221E-01  8.6097681299E-02  2.1226104265E+02  7.4105742166E-02  5.6288842162E-01
</event>
<event>
     4    81  1.000000E+00  2.256692E+02  7.843156E-03  1.115145E-01
       2   -1    0    0  101    0  0.0000000000E+00  0.0000000000E+00  2.4398160759E+02  2.4398160759E+02  0.0000000000E+00 0. 9.
      -2   -1    0    0    0  102  0.0000000000E+00  0.0000000000E+00 -3.7397899671E+02  3.7397899671E+02  0.0000000000E+00 0. 9.
       6    1    1    2  101    0  1.3593845759E+02 -2.3237353261E+01 -2.7000650044E+02  3.5034208138E+02  1.7554721549E+02 0. 9.
      -6    1    1    2    0  102 -1.3593845759E+02  2.3237353261E+01  1.4000911132E+02  2.6761852292E+02  1.8165319627E+02 0. 9.
#pdf     2   -2  2.4896082407E-01  3.8161122113E-01  2.2566921175E+02  3.9978030909E-01  2.2291125517E-01
</event>
<event>
     4    82  1.000000E+00  2.980495E+02  7.867869E-03  1.074473E-01
      21   -1    0    0  101  102  0.0000000000E+00  0.0000000000E+00  3.5218643046E+02  3.5218643046E+02  0.0000000000E+00 0. 9.
      21   -1    0    0  103  101  0.0000000000E+00  0.0000000000E+00 -2.5595906882E+02  2.5595906882E+02  0.0000000000E+00 0. 9.
      -6    1    1    2    0  102  1.2527696066E+02  2.0646128245E+02  1.1396176994E+01  2.9804043934E+02  1.7429186042E+02 0. 9.
       6    1    1    2  103    0 -1.2527696066E+02 -2.0646128245E+02  8.4831184644E+01  3.1010505994E+02  1.7506638823E+02 0. 9.
#pdf    21   21  3.5937390863E-01  2.6118272329E-01  2.9804953359E+02  3.0561841577E-02  9.3123182137E-02
</event>
<event>
     4    81  1.000000E+00  2.052459E+02  7.834764E-03  1.129727E-01
       1   -1    0    0  101    0  0.0000000000E+00  0.0000000000E+00  2.5915303992E+02  2.5915303992E+02  0.0000000000E+00 0. 9.
      -1   -1    0    0    0  102  0.0000000000E+00  0.0000000000E+00 -1.6255502010E+02  1.6255502010E+02  0.0000000000E+00 0. 9.
       6    1    1    2  101    0 -3.3084495493E+01  1.0492263327E+02  4.5721405611E+01  2.0842177290E+02  1.7101416805E+02 0. 9.
      -6    1    1    2    0  102  3.3084495493E+01 -1.0492263327E+02  5.0876614208E+01  2.1328628711E+02  1.7549720107E+02 0. 9.
#pdf     1   -1  2.6444187747E-01  1.6587246949E-01  2.0524594866E+02  1.5462311380E-01  2.5288259942E-01
</event>
<event>
     4    81  1.000000E+00  1.839102E+02  7.825076E-03  1.147083E-01
       2   -1    0    0  101    0  0.0000000000E+00  0.0000000000E+00  1.3354118771E+02  1.3354118771E+02  0.0000000000E+00 0. 9.
      -2   -1    0    0    0  102  0.0000000000E+00  0.0000000000E+00 -3.0869378916E+02  3.0869378916E+02  0.0000000000E+00 0. 9.
       6    1    1    2  101    0  3.4733023042E+01 -3.9105897242E+01 -1.8147944286E+02  2.5876607615E+02  1.7688821299E+02 0. 9.
      -6    1    1    2    0  102 -3.4733023042E+01  3.9105897242E+01  6.3268414158E+00  1.8346890072E+02  1.7574172675E+02 0. 9.
#pdf     2   -2  1.3626651807E-01  3.1499366240E-01  1.8391017181E+02  5.3457887551E-01  3.1444255458E-01
</event>
<event>
     4    81  1.000000E+00  2.023793E+02  7.833521E-03  1.131922E-01
       2   -1    0    0  101    0  0.0000000000E+00  0.0000000000E+00  4.7347752256E+02  4.7347752256E+02  0.0000000000E+00 0. 9.
      -2   -1    0    0    0  102  0.0000000000E+00  0.0000000000E+00 -1.1094138178E+02  1.1094138178E+02  0.0000000000E+00 0. 9.
       6    1    1    2  101    0 -9.0368755888E+01 -3.4903416736E+01  4.7295760510E+01  2.1234880275E+02  1.8294907633E+02 0. 9.
      -6    1    1    2    0  102  9.0368755888E+01  3.4903416736E+01  3.1524038027E+02  3.7207010158E+02  1.7226404905E+02 0. 9.
#pdf     2   -2  4.8314032914E-01  1.1320549161E-01  2.0237933220E+02  1.2247345405E-01  5.4886161630E-01
</event>
<event>
     4    81  1.000000E+00  1.814991E+02  7.823913E-03  1.149206E-01
       1   -1    0    0  101    0  0.0000000000E+00  0.0000000000E+00  2.6225203442E+02  2.6225203442E+02  0.0000000000E+00 0. 9.
      -1   -1    0    0    0  102  0.0000000000E+00  0.0000000000E+00 -1.8048805062E+02  1.8048805062E+02  0.0000000000E+00 0. 9.
       6    1    1    2  101    0 -1.4441092690E+01  4.2883017845E+01 -8.1252894700E+01  1.9844610573E+02  1.7530352422E+02 0. 9.
      -6    1    1    2    0  102  1.4441092690E+01 -4.2883017845E+01  1.6301687850E+02  2.4429397931E+02  1.7623151612E+02 0. 9.
#pdf     1   -1  2.6760411675E-01  1.8417148023E-01  1.8149913173E+02  1.5372364896E-01  2.3474758752E-01
</event>
<event>
     4    81  1.000000E+00  2.189623E+02  7.840485E-03  1.119742E-01
       2   -1    0    0  101    0  0.0000000000E+00  0.0000000000E+00  2.4187523545E+02  2.4187523545E+02  0.0000000000E+00 0. 9.
      -2   -1    0    0    0  102  0.0000000000E+00  0.0000000000E+00 -1.9838048586E+02  1.9838048586E+02  0.0000000000E+00 0. 9.
       6    1    1    2  101    0  5.6935655990E+01  1.1814224835E+02  2.7990088593E+01  2.2051578165E+02  1.7505572007E+02 0. 9.
      -6    1    1    2    0  102 -5.6935655990E+01 -1.1814224835E+02  1.5504661002E+01  2.1973993966E+02  1.7563025594E+02 0. 9.
#pdf     2   -2  2.4681146475E-01  2.0242906720E-01  2.1896233862E+02  4.0364479030E-01  4.6199117132E-01
</event>
<event>
     4    81  1.000000E+00  2.300157E+02  7.844845E-03  1.112258E-01
       2   -1    0    0  101    0  0.0000000000E+00  0.0000000000E+00  4.2229013821E+02  4.2229013821E+02  0.0000000000E+00 0. 9.
      -2   -1    0    0    0  102  0.0000000000E+00  0.0000000000E+00 -1.5337489804E+02  1.5337489804E+02  0.0000000000E+00 0. 9.
       6    1    1    2  101    0 -9.5869293532E+01  1.1254157599E+02  1.0692335758E+01  2.2904168375E+02  1.7461168082E+02 0. 9.
      -6    1    1    2    0  102  9.5869293532E+01 -1.1254157599E+02  2.5822290441E+02  3.4662335251E+02  1.7779806628E+02 0. 9.
#pdf     2   -2  4.3090830429E-01  1.5650499800E-01  2.3001570272E+02  1.6814283650E-01  5.1178055007E-01
</event>
<event>
     4    81  1.000000E+00  1.747471E+02  7.820573E-03  1.155347E-01
       2   -1    0    0  101    0  0.0000000000E+00  0.0000000000E+00  3.1494991293E+02  3.1494991293E+02  0.0000000000E+00 0. 9.
      -2   -1    0    0    0  102  0.0000000000E+00  0.0000000000E+00 -1.1103304073E+02  1.1103304073E+02  0.0000000000E+00 0. 9.
       6    1    1    2  101    0 -4.9811631510E+01 -6.6054355021E+00  2.9495018702E+01  1.8439714340E+02  1.7495004988E+02 0. 9.
      -6    1    1    2    0  102  4.9811631510E+01  6.6054355021E+00  1.7442185349E+02  2.4158581026E+02  1.5942361911E+02 0. 9.
#pdf     2   -2  3.2137746217E-01  1.1329902116E-01  1.7474706165E+02  3.0730177334E-01  5.5129778004E-01
</event>
<event>
     4    81  1.000000E+00  2.066242E+02  7.835355E-03  1.128686E-01
       2   -1    0    0  101    0  0.0000000000E+00  0.0000000000E+00  2.3399283128E+02  2.3399283128E+02  0.0000000000E+00 0. 9.
      -2   -1    0    0    0  102  0.0000000000E+00  0.0000000000E+00 -1.8283289107E+02  1.8283289107E+02  0.0000000000E+00 0. 9.
       6    1    1    2  101    0 -9.4657438560E+01  5.7864636285E+01  1.6128653394E+01  2.0726659012E+02  1.7433002929E+02 0. 9.
      -6    1    1    2    0  102  9.4657438560E+01 -5.7864636285E+01  3.5031286824E+01  2.0955913224E+02  1.7429713721E+02 0. 9.
#pdf     2   -2  2.3876819519E-01  1.8656417456E-01  2.0662422990E+02  4.1637245137E-01  4.8256611423E-01
</event>
<event>
     4    81  1.000000E+00  1.759058E+02  7.821155E-03  1.154272E-01
       2   -1    0    0  101    0  0.0000000000E+00  0.0000000000E+00  1.7431508914E+02  1.7431508914E+02  0.0000000000E+00 0. 9.
      -2   -1    0    0    0  102  0.0000000000E+00  0.0000000000E+00 -1.8999625187E+02  1.8999625187E+02  0.0000000000E+00 0. 9.
       6    1    1    2  101    0  4.6041442986E+01  1.4092510490E+01 -5.4825607268E+01  1.7656822308E+02  1.6078581052E+02 0. 9.
      -6    1    1    2    0  102 -4.6041442986E+01 -1.4092510490E+01  3.9144444541E+01  1.8774311792E+02  1.7719135833E+02 0. 9.
#pdf     2   -2  1.7787253994E-01  1.9387372639E-01  1.7590577162E+02  4.9664541561E-01  4.7854614971E-01
</event>
<event>
     4    81  1.000000E+00  1.869237E+02  7.826509E-03  1.144479E-01
       2   -1    0    0  101    0  0.0000000000E+00  0.0000000000E+00  3.5257740813E+02  3.5257740813E+02  0.0000000000E+00 0. 9.
      -2   -1    0    0    0  102  0.0000000000E+00  0.0000000000E+00 -1.0506746551E+02  1.0506746551E+02  0.0000000000E+00 0. 9.
       6    1    1    2  101    0 -9.5528340387E+01 -2.2029348351E+00  1.7210563806E+02  2.4411430390E+02  1.4436386659E+02 0. 9.
      -6    1    1    2    0  102  9.5528340387E+01  2.2029348351E+00  7.5404304559E+01  2.1353056974E+02  1.7543938649E+02 0. 9.
#pdf     2   -2  3.5977286544E-01  1.0721169950E-01  1.8692369805E+02  2.5478614225E-01  5.5369676816E-01
</event>
<event>
     4    81  1.000000E+00  1.876602E+02  7.826856E-03  1.143851E-01
       2   -1    0    0  101    0  0.0000000000E+00  0.0000000000E+00  3.5086213281E+02  3.5086213281E+02  0.0000000000E+00 0. 9.
      -2   -1    0    0    0  102  0.0000000000E+00  0.0000000000E+00 -1.1464788411E+02  1.1464788411E+02  0.0000000000E+00 0. 9.
       6    1    1    2  101    0  2.7148138778E+01  6.7035013284E+01  2.0068975366E+02  2.7530679788E+02  1.7403086303E+02 0. 9.
      -6    1    1    2    0  102 -2.7148138778E+01 -6.7035013284E+01  3.5524495039E+01  1.9020321904E+02  1.7229207858E+02 0. 9.
#pdf     2   -2  3.5802258450E-01  1.1698763684E-01  1.8766023888E+02  2.5689546207E-01  5.4780270769E-01
</event>
<event>
     4    81  1.000000E+00  1.894624E+02  7.827699E-03  1.142327E-01
       1   -1    0    0  101    0  0.0000000000E+00  0.0000000000E+00  1.0432283713E+02  1.0432283713E+02  0.0000000000E+00 0. 9.
      -1   -1    0    0    0  102  0.0000000000E+00  0.0000000000E+00 -3.5977689480E+02  3.5977689480E+02  0.0000000000E+00 0. 9.
       6    1    1    2  101    0  2.6765264443E+01  6.6135357573E+01 -7.9374774190E+01  2.0557341610E+02  1.7569806409E+02 0. 9.
      -6    1    1    2    0  102 -2.6765264443E+01 -6.6135357573E+01 -1.7607928348E+02  2.5852631583E+02  1.7533304596E+02 0. 9.
#pdf     1   -1  1.0645187462E-01  3.6711928041E-01  1.8946241914E+02  3.2523344083E-01  8.2639097491E-02
</event>
<event>
     4    81  1.000000E+00  2.106644E+02  7.837067E-03  1.125684E-01
       1   -1    0    0  101    0  0.0000000000E+00  0.0000000000E+00  1.9207735409E+02  1.9207735409E+02  0.0000000000E+00 0. 9.
      -1   -1    0    0    0  102  0.0000000000E+00  0.0000000000E+00 -2.3426281591E+02  2.3426281591E+02  0.0000000000E+00 0. 9.
       6    1    1    2  101    0  1.1708565503E+02  5.5807487047E+00 -4.6049079274E+01  2.1556368658E+02  1.7494853500E+02 0. 9.
      -6    1    1    2    0  102 -1.1708565503E+02 -5.5807487047E+00  3.8636174568E+00  2.1077648342E+02  1.7513310097E+02 0. 9.
#pdf     1   -1  1.9599730009E-01  2.3904368970E-01  2.1066440574E+02  2.1976100799E-01  1.7703236419E-01
</event>
<event>
     4    81  1.000000E+00  1.900740E+02  7.827983E-03  1.141814E-01
       2   -1    0    0  101    0  0.0000000000E+00  0.0000000000E+00  3.1844450157E+02  3.1844450157E+02  0.0000000000E+00 0. 9.
      -2   -1    0    0    0  102  0.0000000000E+00  0.0000000000E+00 -1.4683841173E+02  1.4683841173E+02  0.0000000000E+00 0. 9.
       6    1    1    2  101    0 -6.3730535936E+01 -3.9493117643E+01 -2.5405424438E+01  1.9098130243E+02  1.7380199865E+02 0. 9.
      -6    1    1    2    0  102  6.3730535936E+01  3.9493117643E+01  1.9701151428E+02  2.7430161087E+02  1.7551794613E+02 0. 9.
#pdf     2   -2  3.2494336895E-01  1.4983511401E-01  1.9007401092E+02  2.9993024921E-01  5.2247632866E-01
</event>
<event>
     4    81  1.000000E+00  1.819751E+02  7.824144E-03  1.148784E-01
       2   -1    0    0  101    0  0.0000000000E+00  0.0000000000E+00  5.6951815624E+02  5.6951815624E+02  0.0000000000E+00 0. 9.
      -2   -1    0    0    0  102  0.0000000000E+00  0.0000000000E+00 -7.0448162815E+01  7.0448162815E+01  0.0000000000E+00 0. 9.
       6    1    1    2  101    0 -2.8378453436E+01 -3.9042585932E+01  3.8303995383E+02  4.2398791727E+02  1.7526119829E+02 0. 9.
      -6    1    1    2    0  102  2.8378453436E+01  3.9042585932E+01  1.1603003959E+02  2.1597840178E+02  1.7565318048E+02 0. 9.
#pdf     2   -2  5.8114097575E-01  7.1885880424E-02  1.8197506383E+02  5.8427891064E-02  5.7086523427E-01
</event>
<event>
     4    81  1.000000E+00  1.856480E+02  7.825905E-03  1.145575E-01
       2   -1    0    0  101    0  0.0000000000E+00  0.0000000000E+00  2.4754754861E+02  2.4754754861E+02  0.0000000000E+00 0. 9.
      -2   -1    0    0    0  102  0.0000000000E+00  0.0000000000E+00 -1.3925719609E+02  1.3925719609E+02  0.0000000000E+00 0. 9.
       6    1    1    2  101    0 -1.8547051561E+01 -5.5257087027E+01  5.6996430038E+01  1.9414185897E+02  1.7619628140E+02 0. 9.
      -6    1    1    2    0  102  1.8547051561E+01  5.5257087027E+01  5.1293922488E+01  1.9266288573E+02  1.7632521733E+02 0. 9.
#pdf     2   -2  2.5259953940E-01  1.4209917968E-01  1.8564803988E+02  4.0075981360E-01  5.2967651357E-01
</event>
<event>
     4    81  1.000000E+00  3.295883E+02  7.876844E-03  1.060488E-01
       2   -1    0    0  101    0  0.0000000000E+00  0.0000000000E+00  3.9282372629E+02  3.9282372629E+02  0.0000000000E+00 0. 9.
      -2   -1    0    0    0  102  0.0000000000E+00  0.0000000000E+00 -3.0994542088E+02  3.0994542088E+02  0.0000000000E+00 0. 9.
       6    1    1    2  101    0 -1.4749154436E+02 -2.3860736006E+02  1.5688498082E+02  3.6560597336E+02  1.7426302711E+02 0. 9.
      -6    1    1    2    0  102  1.4749154436E+02  2.3860736006E+02 -7.4006675407E+01  3.3716317380E+02  1.7179868984E+02 0. 9.
#pdf     2   -2  4.0084053703E-01  3.1627083763E-01  3.2958826459E+02  1.9191144292E-01  2.9588340784E-01
</event>
<event>
     4    81  1.000000E+00  1.787770E+02  7.822582E-03  1.151646E-01
       2   -1    0    0  101    0  0.0000000000E+00  0.0000000000E+00  8.8437033371E+01  8.8437033371E+01  0.0000000000E+00 0. 9.
      -2   -1    0    0    0  102  0.0000000000E+00  0.0000000000E+00 -3.6637896873E+02  3.6637896873E+02  0.0000000000E+00 0. 9.
       6    1    1    2  101    0 -3.7851119830E+01  1.1472139794E+01 -1.6531861264E+02  2.4334421365E+02  1.7413168973E+02 0. 9.
      -6    1    1    2    0  102  3.7851119830E+01 -1.1472139794E+01 -1.1262332272E+02  2.1147178845E+02  1.7456227321E+02 0. 9.
#pdf     2   -2  9.0241870787E-02  3.7385609054E-01  1.7877704987E+02  5.6288012715E-01  2.3846322489E-01
</event>
<event>
     4    81  1.000000E+00  2.140006E+02  7.838457E-03  1.123259E-01
       2   -1    0    0  101    0  0.0000000000E+00  0.0000000000E+00  1.7903324120E+02  1.7903324120E+02  0.0000000000E+00 0. 9.
      -2   -1    0    0    0  102  0.0000000000E+00  0.0000000000E+00 -2.8374686391E+02  2.8374686391E+02  0.0000000000E+00 0. 9.
       6    1    1    2  101    0  3.6669966964E+01 -1.1750491278E+02  2.0252219415E+01  2.1501301619E+02  1.7512382401E+02 0. 9.
      -6    1    1    2    0  102 -3.6669966964E+01  1.1750491278E+02 -1.2496584213E+02  2.4776708892E+02  1.7498564984E+02 0. 9.
#pdf     2   -2  1.8268698081E-01  2.8953761623E-01  2.1400059976E+02  4.8604235602E-01  3.4497976348E-01
</event>
<event>
     4    81  1.000000E+00  1.896510E+02  7.827787E-03  1.142169E-01
       2   -1    0    0  101    0  0.0000000000E+00  0.0000000000E+00  1.7941476631E+02  1.7941476631E+02  0.0000000000E+00 0. 9.
      -2   -1    0    0    0  102  0.0000000000E+00  0.0000000000E+00 -2.0055453201E+02  2.0055453201E+02  0.0000000000E+00 0. 9.
       6    1    1    2  101    0 -5.5710893901E+01  3.4297738442E+01 -6.2393617211E+00  1.9194132738E+02  1.8033997050E+02 0. 9.
      -6    1    1    2    0  102  5.5710893901E+01 -3.4297738442E+01 -1.4900403982E+01  1.8802797094E+02  1.7564867565E+02 0. 9.
#pdf     2   -2  1.8307629215E-01  2.0464748164E-01  1.8965104711E+02  4.8886842672E-01  4.6337326506E-01
</event>
<event>
     4    81  1.000000E+00  1.912599E+02  7.828532E-03  1.140826E-01
       2   -1    0    0  101    0  0.0000000000E+00  0.0000000000E+00  2.0195952509E+02  2.0195952509E+02  0.0000000000E+00 0. 9.
      -2   -1    0    0    0  102  0.0000000000E+00  0.0000000000E+00 -2.4581171543E+02  2.4581171543E+02  0.0000000000E+00 0. 9.
       6    1    1    2  101    0 -1.3323675365E+01 -7.5045289740E+01 -1.3665894302E+02  2.3388396415E+02  1.7382958938E+02 0. 9.
      -6    1    1    2    0  102  1.3323675365E+01  7.5045289740E+01  9.2806752678E+01  2.1388727636E+02  1.7698971103E+02 0. 9.
#pdf     2   -2  2.0608114805E-01  2.5082828105E-01  1.9125992213E+02  4.6135029671E-01  4.0227195723E-01
</event>
<event>
     4    81  1.000000E+00  2.432158E+02  7.849792E-03  1.103898E-01
       2   -1    0    0  101    0  0.0000000000E+00  0.0000000000E+00  1.4933149363E+02  1.4933149363E+02  0.0000000000E+00 0. 9.
      -2   -1    0    0    0  102  0.0000000000E+00  0.0000000000E+00 -4.2050428933E+02  4.2050428933E+02  0.0000000000E+00 0. 9.
       6    1    1    2  101    0  2.8690030480E+01 -1.6684884189E+02 -2.0397674675E+02  3.1711472323E+02  1.7405051159E+02 0. 9.
      -6    1    1    2    0  102 -2.8690030480E+01  1.6684884189E+02 -6.7196048951E+01  2.5272105973E+02  1.7518838760E+02 0. 9.
#pdf     2   -2  1.5237907513E-01  4.2908600952E-01  2.4321580902E+02  5.1442403331E-01  1.6878089116E-01
</event>
<event>
     4    81  1.000000E+00  1.779516E+02  7.822174E-03  1.152395E-01
       2   -1    0    0  101    0  0.0000000000E+00  0.0000000000E+00  5.3241279674E+01  5.3241279674E+01  0.0000000000E+00 0. 9.
      -2   -1    0    0    0  102  0.0000000000E+00  0.0000000000E+00 -5.9546627358E+02  5.9546627358E+02  0.0000000000E+00 0. 9.
       6    1    1    2  101    0 -2.1713381631E+01  1.9395782556E+01 -2.8229048800E+02  3.3375308983E+02  1.7565744513E+02 0. 9.
      -6    1    1    2    0  102  2.1713381631E+01 -1.9395782556E+01 -2.5993450590E+02  3.1495446343E+02  1.7544999102E+02 0. 9.
#pdf     2   -2  5.4327836402E-02  6.0761864651E-01  1.7795163953E+02  5.8043861226E-01  4.6050810147E-02
</event>
<event>
     4    81  1.000000E+00  2.603694E+02  7.855843E-03  1.093856E-01
       2   -1    0    0  101    0  0.0000000000E+00  0.0000000000E+00  3.7073507832E+02  3.7073507832E+02  0.0000000000E+00 0. 9.
      -2   -1    0    0    0  102  0.0000000000E+00  0.0000000000E+00 -1.8467539677E+02  1.8467539677E+02  0.0000000000E+00 0. 9.
       6    1    1    2  101    0 -1.7752495557E+02 -7.5650347731E+01  6.5456348424E+01  2.6838390087E+02  1.7466338979E+02 0. 9.
      -6    1    1    2    0  102  1.7752495557E+02  7.5650347731E+01  1.2060333313E+02  2.8702657422E+02  1.7493143053E+02 0. 9.
#pdf     2   -2  3.7830110033E-01  1.8844428242E-01  2.6036942509E+02  2.2321930837E-01  4.7412967813E-01
</event>
<event>
     4    81  1.000000E+00  1.803876E+02  7.823372E-03  1.150196E-01
       2   -1    0    0  101    0  0.0000000000E+00  0.0000000000E+00  2.1899558932E+02  2.1899558932E+02  0.0000000000E+00 0. 9.
      -2   -1    0    0    0  102  0.0000000000E+00  0.0000000000E+00 -2.1865390808E+02  2.1865390808E+02  0.0000000000E+00 0. 9.
       6    1    1    2  101    0 -4.4094084173E+01  2.4905112838E+00  1.2404445417E+02  2.1917019088E+02  1.7520860440E+02 0. 9.
      -6    1    1    2    0  102  4.4094084173E+01 -2.4905112838E+00 -1.2370277293E+02  2.1847930652E+02  1.7458619774E+02 0. 9.
#pdf     2   -2  2.2346488706E-01  2.2311623274E-01  1.8038760671E+02  4.4089699040E-01  4.4135261428E-01
</event>
<event>
     4    81  1.000000E+00  1.875276E+02  7.826794E-03  1.143964E-01
       2   -1    0    0  101    0  0.0000000000E+00  0.0000000000E+00  1.5211235693E+02  1.5211235693E+02  0.0000000000E+00 0. 9.
      -2   -1    0    0    0  102  0.0000000000E+00  0.0000000000E+00 -2.3143166228E+02  2.3143166228E+02  0.0000000000E+00 0. 9.
       6    1    1    2  101    0 -6.1015571681E+01  3.2621045938E+01 -3.3069527417E+01  1.8923790833E+02  1.7300392967E+02 0. 9.
      -6    1    1    2    0  102  6.1015571681E+01 -3.2621045938E+01 -4.6249777931E+01  1.9430611088E+02  1.7558129212E+02 0. 9.
#pdf     2   -2  1.5521669075E-01  2.3615475743E-01  1.8752761807E+02  5.1788188486E-01  4.2286369864E-01
</event>
<event>
     4    81  1.000000E+00  2.077321E+02  7.835828E-03  1.127855E-01
       2   -1    0    0  101    0  0.0000000000E+00  0.0000000000E+00  3.3649156508E+02  3.3649156508E+02  0.0000000000E+00 0. 9.
      -2   -1    0    0    0  102  0.0000000000E+00  0.0000000000E+00 -1.3258968200E+02  1.3258968200E+02  0.0000000000E+00 0. 9.
       6    1    1    2  101    0  7.5411929563E+01 -8.3454729450E+01  1.4440126686E+02  2.5296158806E+02  1.7460294435E+02 0. 9.
      -6    1    1    2    0  102 -7.5411929563E+01  8.3454729450E+01  5.9500616221E+01  2.1611965901E+02  1.7468752873E+02 0. 9.
#pdf     2   -2  3.4335873987E-01  1.3529559387E-01  2.0773206643E+02  2.7289230980E-01  5.3278135952E-01
</event>
<event>
     4    81  1.000000E+00  2.557228E+02  7.854243E-03  1.096492E-01
       2   -1    0    0  101    0  0.0000000000E+00  0.0000000000E+00  2.5307012553E+02  2.5307012553E+02  0.0000000000E+00 0. 9.
      -2   -1    0    0    0  102  0.0000000000E+00  0.0000000000E+00 -3.6554069537E+02  3.6554069537E+02  0.0000000000E+00 0. 9.
       6    1    1    2  101    0 -2.3899600794E+01 -1.7999974392E+02  1.1178724606E+02  2.7586423230E+02  1.7502453414E+02 0. 9.
      -6    1    1    2    0  102  2.3899600794E+01  1.7999974392E+02 -2.2425781591E+02  3.4274658860E+02  1.8496636795E+02 0. 9.
#pdf     2   -2  2.5823482197E-01  3.7300070957E-01  2.5572284048E+02  3.8321934503E-01  2.3001973991E-01
</event>
<event>
     4    81  1.000000E+00  2.750503E+02  7.860719E-03  1.085906E-01
       2   -1    0    0  101    0  0.0000000000E+00  0.0000000000E+00  2.6900065674E+02  2.6900065674E+02  0.0000000000E+00 0. 9.
      -2   -1    0    0    0  102  0.0000000000E+00  0.0000000000E+00 -3.2272542829E+02  3.2272542829E+02  0.0000000000E+00 0. 9.
       6    1    1    2  101    0  1.5955806577E+02 -1.3872752357E+02  7.9158956985E+01  2.8692735708E+02  1.7707926366E+02 0. 9.
      -6    1    1    2    0  102 -1.5955806577E+02  1.3872752357E+02 -1.3288372854E+02  3.0479872795E+02  1.7475719471E+02 0. 9.
#pdf     2   -2  2.7449046606E-01  3.2931166152E-01  2.7505031087E+02  3.5844839857E-01  2.8346671385E-01
</event>
<event>
     4    81  1.000000E+00  1.803485E+02  7.823353E-03  1.150231E-01
       2   -1    0    0  101    0  0.0000000000E+00  0.0000000000E+00  1.2723391729E+02  1.2723391729E+02  0.0000000000E+00 0. 9.
      -2   -1    0    0    0  102  0.0000000000E+00  0.0000000000E+00 -2.7717697581E+02  2.7717697581E+02  0.0000000000E+00 0. 9.
       6    1    1    2  101    0 -4.0562687013E+01  1.9824106685E+01 -1.3149541362E+02  2.2351753890E+02  1.7501634098E+02 0. 9.
      -6    1    1    2    0  102  4.0562687013E+01 -1.9824106685E+01 -1.8447644890E+01  1.8089335419E+02  1.7419461302E+02 0. 9.
#pdf     2   -2  1.2983052785E-01  2.8283364878E-01  1.8034846324E+02  5.3983584438E-01  3.5961146980E-01
</event>
<event>
     4    81  1.000000E+00  1.943924E+02  7.829965E-03  1.138252E-01
       2   -1    0    0  101    0  0.0000000000E+00  0.0000000000E+00  4.1727302583E+02  4.1727302583E+02  0.0000000000E+00 0. 9.
      -2   -1    0    0    0  102  0.0000000000E+00  0.0000000000E+00 -9.6029377414E+01  9.6029377414E+01  0.0000000000E+00 0. 9.
       6    1    1    2  101    0  4.5629871169E+01  6.6967653694E+01  2.2066688476E+02  2.9302882891E+02  1.7494361595E+02 0. 9.
      -6    1    1    2    0  102 -4.5629871169E+01 -6.6967653694E+01  1.0057676366E+02  2.2027357433E+02  1.7843208898E+02 0. 9.
#pdf     2   -2  4.2578880187E-01  9.7989160627E-02  1.9439236444E+02  1.7718720189E-01  5.5806136883E-01
</event>
<event>
     4    81  1.000000E+00  2.601938E+02  7.855783E-03  1.093955E-01
       2   -1    0    0  101    0  0.0000000000E+00  0.0000000000E+00  2.6545813596E+02  2.6545813596E+02  0.0000000000E+00 0. 9.
      -2   -1    0    0    0  102  0.0000000000E+00  0.0000000000E+00 -2.9626639009E+02  2.9626639009E+02  0.0000000000E+00 0. 9.
       6    1    1    2  101    0  1.7928843304E+02 -6.8231331262E+01  8.9352542427E+01  2.7552963990E+02  1.7644503064E+02 0. 9.
      -6    1    1    2    0  102 -1.7928843304E+02  6.8231331262E+01 -1.2016079655E+02  2.8619488615E+02  1.7512578063E+02 0. 9.
#pdf     2   -2  2.7087564894E-01  3.0231264294E-01  2.6019377534E+02  3.6511930644E-01  3.2150474295E-01
</event>
<event>
     4    81  1.000000E+00  2.116924E+02  7.837497E-03  1.124931E-01
       2   -1    0    0  101    0  0.0000000000E+00  0.0000000000E+00  3.9186397998E+02  3.9186397998E+02  0.0000000000E+00 0. 9.
      -2   -1    0    0    0  102  0.0000000000E+00  0.0000000000E+00 -1.1442763492E+02  1.1442763492E+02  0.0000000000E+00 0. 9.
       6    1    1    2  101    0  1.0711978469E+02  3.5843677977E+00  1.4557687258E+02  2.5768752640E+02  1.8363752195E+02 0. 9.
      -6    1    1    2    0  102 -1.0711978469E+02 -3.5843677977E+00  1.3185947247E+02  2.4860408850E+02  1.8146508307E+02 0. 9.
#pdf     2   -2  3.9986120406E-01  1.1676289278E-01  2.1169235670E+02  2.0336705632E-01  5.4581958246E-01
</event>
<event>
     4    81  1.000000E+00  1.906784E+02  7.828263E-03  1.141310E-01
       2   -1    0    0  101    0  0.0000000000E+00  0.0000000000E+00  1.8032068010E+02  1.8032068010E+02  0.0000000000E+00 0. 9.
      -2   -1    0    0    0  102  0.0000000000E+00  0.0000000000E+00 -2.0182588308E+02  2.0182588308E+02  0.0000000000E+00 0. 9.
       6    1    1    2  101    0 -2.2155300317E+01  7.1912096826E+01 -1.6684580471E+01  1.9133908264E+02  1.7512870215E+02 0. 9.
      -6    1    1    2    0  102  2.2155300317E+01 -7.1912096826E+01 -4.8206225040E+00  1.9080748054E+02  1.7527706418E+02 0. 9.
#pdf     2   -2  1.8400069398E-01  2.0594477865E-01  1.9067842766E+02  4.8768063457E-01  4.6160842755E-01
</event>
<event>
     4    81  1.000000E+00  2.124198E+02  7.837801E-03  1.124402E-01
       1   -1    0    0  101    0  0.0000000000E+00  0.0000000000E+00  3.6413109865E+02  3.6413109865E+02  0.0000000000E+00 0. 9.
      -1   -1    0    0    0  102  0.0000000000E+00  0.0000000000E+00 -1.2470129156E+02  1.2470129156E+02  0.0000000000E+00 0. 9.
       6    1    1    2  101    0  9.4423416482E+01 -7.4909117590E+01  1.0016260273E+02  2.3457590192E+02  1.7454555077E+02 0. 9.
      -6    1    1    2    0  102 -9.4423416482E+01  7.4909117590E+01  1.3926720436E+02  2.5425648829E+02  1.7528220146E+02 0. 9.
#pdf     1   -1  3.7156234556E-01  1.2724621587E-01  2.1241976650E+02  7.8988671229E-02  2.9753343168E-01
</event>
<event>
     4    81  1.000000E+00  2.344535E+02  7.846539E-03  1.109381E-01
       2   -1    0    0  101    0  0.0000000000E+00  0.0000000000E+00  2.7094074400E+02  2.7094074400E+02  0.0000000000E+00 0. 9.
      -2   -1    0    0    0  102  0.0000000000E+00  0.0000000000E+00 -3.3701360984E+02  3.3701360984E+02  0.0000000000E+00 0. 9.
       6    1    1    2  101    0  1.6409455971E-01  1.5589536800E+02 -2.2483232905E+02  3.2503355868E+02  1.7548175231E+02 0. 9.
      -6    1    1    2    0  102 -1.6409455971E-01 -1.5589536800E+02  1.5875946321E+02  2.8292079516E+02  1.7474614870E+02 0. 9.
#pdf     2   -2  2.7647014694E-01  3.4389143861E-01  2.3445345728E+02  3.6042773649E-01  2.6879642757E-01
</event>
<event>
     4    81  1.000000E+00  1.862559E+02  7.826193E-03  1.145052E-01
       1   -1    0    0  101    0  0.0000000000E+00  0.0000000000E+00  1.9390346862E+02  1.9390346862E+02  0.0000000000E+00 0. 9.
      -1   -1    0    0    0  102  0.0000000000E+00  0.0000000000E+00 -4.5633599014E+02  4.5633599014E+02  0.0000000000E+00 0. 9.
       6    1    1    2  101    0 -5.6709067809E+01  2.5016246969E+01  1.2211657507E+02  2.2321959692E+02  1.7627478423E+02 0. 9.
      -6    1    1    2    0  102  5.6709067809E+01 -2.5016246969E+01 -3.8454909658E+02  4.2701986185E+02  1.7500349638E+02 0. 9.
#pdf     1   -1  1.9786068227E-01  4.6564896953E-01  1.8625585262E+02  2.1979562391E-01  3.9309104447E-02
</event>
<event>
     4    81  1.000000E+00  1.769895E+02  7.821696E-03  1.153274E-01
       2   -1    0    0  101    0  0.0000000000E+00  0.0000000000E+00  5.3572028046E+02  5.3572028046E+02  0.0000000000E+00 0. 9.
      -2   -1    0    0    0  102  0.0000000000E+00  0.0000000000E+00 -6.0095765389E+01  6.0095765389E+01  0.0000000000E+00 0. 9.
       6    1    1    2  101    0  3.1373017819E+01  1.1309671133E+00  1.8689382059E+02  2.5639343284E+02  1.7269263706E+02 0. 9.
      -6    1    1    2    0  102 -3.1373017819E+01 -1.1309671133E+00  2.8873069448E+02  3.3942261301E+02  1.7566089762E+02 0. 9.
#pdf     2   -2  5.4665334741E-01  6.1322209580E-02  1.7698953149E+02  7.8375587122E-02  5.7619972386E-01
</event>
<event>
     4    81  1.000000E+00  2.052470E+02  7.834764E-03  1.129726E-01
       2   -1    0    0  101    0  0.0000000000E+00  0.0000000000E+00  1.6894264860E+02  1.6894264860E+02  0.0000000000E+00 0. 9.
      -2   -1    0    0    0  102  0.0000000000E+00  0.0000000000E+00 -2.5094514407E+02  2.5094514407E+02  0.0000000000E+00 0. 9.
       6    1    1    2  101    0  9.3679253339E+01  4.9090189621E+01 -5.7738632815E+01  2.1328341919E+02  1.7598414122E+02 0. 9.
      -6    1    1    2    0  102 -9.3679253339E+01 -4.9090189621E+01 -2.4263862662E+01  2.0660437347E+02  1.7581519526E+02 0. 9.
#pdf     2   -2  1.7239045775E-01  2.5606647354E-01  2.0524704540E+02  4.9845496347E-01  3.9286515511E-01
</event>
<event>
     4    81  1.000000E+00  1.798002E+02  7.823084E-03  1.150723E-01
       2   -1    0    0  101    0  0.0000000000E+00  0.0000000000E+00  1.0042479799E+02  1.0042479799E+02  0.0000000000E+00 0. 9.
      -2   -1    0    0    0  102  0.0000000000E+00  0.0000000000E+00 -3.4332439484E+02  3.4332439484E+02  0.0000000000E+00 0. 9.
       6    1    1    2  101    0 -4.0020056209E+01 -2.6898609229E+01 -6.6065052009E+01  1.9158792534E+02  1.7325184548E+02 0. 9.
      -6    1    1    2    0  102  4.0020056209E+01  2.6898609229E+01 -1.7683454484E+02  2.5216126749E+02  1.7317536919E+02 0. 9.
#pdf     2   -2  1.0247428366E-01  3.5033101514E-01  1.7980015380E+02  5.5685159756E-01  2.6798523074E-01
</event>
<event>
     4    81  1.000000E+00  2.860380E+02  7.864205E-03  1.080299E-01
       2   -1    0    0  101    0  0.0000000000E+00  0.0000000000E+00  3.4500889680E+02  3.4500889680E+02  0.0000000000E+00 0. 9.
      -2   -1    0    0    0  102  0.0000000000E+00  0.0000000000E+00 -2.4625967080E+02  2.4625967080E+02  0.0000000000E+00 0. 9.
       6    1    1    2  101    0 -2.1758918001E+02 -6.7227584198E+01  1.0647243041E+02  3.0641110880E+02  1.7517645340E+02 0. 9.
      -6    1    1    2    0  102  2.1758918001E+02  6.7227584198E+01 -7.7232044115E+00  2.8485745880E+02  1.7093719494E+02 0. 9.
#pdf     2   -2  3.5204989470E-01  2.5128537837E-01  2.8603803341E+02  2.5299285932E-01  3.8954956410E-01
</event>
<event>
     4    81  1.000000E+00  2.450777E+02  7.850469E-03  1.102765E-01
       2   -1    0    0  101    0  0.0000000000E+00  0.0000000000E+00  2.9706893712E+02  2.9706893712E+02  0.0000000000E+00 0. 9.
      -2   -1    0    0    0  102  0.0000000000E+00  0.0000000000E+00 -2.0248548097E+02  2.0248548097E+02  0.0000000000E+00 0. 9.
       6    1    1    2  101    0  7.5976613075E+01 -1.5360356653E+02  5.6872693851E+01  2.5143336353E+02  1.7497923193E+02 0. 9.
      -6    1    1    2    0  102 -7.5976613075E+01  1.5360356653E+02  3.7710762299E+01  2.4812105455E+02  1.7542934399E+02 0. 9.
#pdf     2   -2  3.0313156849E-01  2.0661783772E-01  2.4507773166E+02  3.2212320715E-01  4.5357184183E-01
</event>
<event>
     4    81  1.000000E+00  1.879805E+02  7.827006E-03  1.143579E-01
       1   -1    0    0  101    0  0.0000000000E+00  0.0000000000E+00  1.3779566127E+02  1.3779566127E+02  0.0000000000E+00 0. 9.
      -1   -1    0    0    0  102  0.0000000000E+00  0.0000000000E+00 -3.0023382712E+02  3.0023382712E+02  0.0000000000E+00 0. 9.
       6    1    1    2  101    0 -6.8469970902E+01 -6.1979689317E+00 -1.6494304084E+02  2.5024724645E+02  1.7518825845E+02 0. 9.
      -6    1    1    2    0  102  6.8469970902E+01  6.1979689317E+00  2.5048749894E+00  1.8778224194E+02  1.7472648412E+02 0. 9.
#pdf     1   -1  1.4060781762E-01  3.0636104808E-01  1.8798054902E+02  2.8331102734E-01  1.2229667580E-01
</event>
<event>
     4    81  1.000000E+00  1.876697E+02  7.826860E-03  1.143843E-01
       2   -1    0    0  101    0  0.0000000000E+00  0.0000000000E+00  3.3711930342E+02  3.3711930342E+02  0.0000000000E+00 0. 9.
      -2   -1    0    0    0  102  0.0000000000E+00  0.0000000000E+00 -1.0575758503E+02  1.0575758503E+02  0.0000000000E+00 0. 9.
       6    1    1    2  101    0  1.4642696344E+01  6.8223417393E+01  9.0481176911E+01  2.0722542837E+02  1.7287767800E+02 0. 9.
      -6    1    1    2    0  102 -1.4642696344E+01 -6.8223417393E+01  1.4088054148E+02  2.3565146008E+02  1.7554327226E+02 0. 9.
#pdf     2   -2  3.4399928921E-01  1.0791590310E-01  1.8766968117E+02  2.7497894847E-01  5.5323675875E-01
</event>
<event>
     4    81  1.000000E+00  1.887818E+02  7.827381E-03  1.142901E-01
       2   -1    0    0  101    0  0.0000000000E+00  0.0000000000E+00  2.8985424025E+02  2.8985424025E+02  0.0000000000E+00 0. 9.
      -2   -1    0    0    0  102  0.0000000000E+00  0.0000000000E+00 -1.2398710834E+02  1.2398710834E+02  0.0000000000E+00 0. 9.
       6    1    1    2  101    0  7.1258640955E+01  6.4159109713E-01  6.4002525046E+01  1.9925416597E+02  1.7472176137E+02 0. 9.
      -6    1    1    2    0  102 -7.1258640955E+01 -6.4159109713E-01  1.0186460687E+02  2.1458718261E+02  1.7490870550E+02 0. 9.
#pdf     2   -2  2.9576963291E-01  1.2651745749E-01  1.8878183209E+02  3.4015851126E-01  5.4130621225E-01
</event>
<event>
     4    81  1.000000E+00  3.106445E+02  7.871560E-03  1.068674E-01
       2   -1    0    0  101    0  0.0000000000E+00  0.0000000000E+00  3.5734108446E+02  3.5734108446E+02  0.0000000000E+00 0. 9.
      -2   -1    0    0    0  102  0.0000000000E+00  0.0000000000E+00 -3.0967761576E+02  3.0967761576E+02  0.0000000000E+00 0. 9.
       6    1    1    2  101    0  9.3260781285E+01  2.3917143707E+02 -9.5471125201E+01  3.2498482938E+02  1.7492813937E+02 0. 9.
      -6    1    1    2    0  102 -9.3260781285E+01 -2.3917143707E+02  1.4313459390E+02  3.4203387085E+02  1.7492600493E+02 0. 9.
#pdf     2   -2  3.6463375966E-01  3.1599756710E-01  3.1064453996E+02  2.3525638014E-01  2.9787370233E-01
</event>
<event>
     4    81  1.000000E+00  2.306925E+02  7.845106E-03  1.111814E-01
       2   -1    0    0  101    0  0.0000000000E+00  0.0000000000E+00  3.5887467035E+02  3.5887467035E+02  0.0000000000E+00 0. 9.
      -2   -1    0    0    0  102  0.0000000000E+00  0.0000000000E+00 -1.5501950749E+02  1.5501950749E+02  0.0000000000E+00 0. 9.
       6    1    1    2  101    0 -6.6582405450E+01  1.3596659741E+02  4.8663668521E+01  2.3636854397E+02  1.7487653821E+02 0. 9.
      -6    1    1    2    0  102  6.6582405450E+01 -1.3596659741E+02  1.5519149434E+02  2.7752563387E+02  1.7325110451E+02 0. 9.
#pdf     2   -2  3.6619864322E-01  1.5818317091E-01  2.3069245055E+02  2.4099955974E-01  5.1007461287E-01
</event>
<event>
     4    81  1.000000E+00  2.007438E+02  7.832804E-03  1.133192E-01
       2   -1    0    0  101    0  0.0000000000E+00  0.0000000000E+00  3.2768697235E+02  3.2768697235E+02  0.0000000000E+00 0. 9.
      -2   -1    0    0    0  102  0.0000000000E+00  0.0000000000E+00 -4.4095655204E+02  4.4095655204E+02  0.0000000000E+00 0. 9.
       6    1    1    2  101    0  3.3684902047E+01  9.4721431231E+01 -3.8312011335E+02  4.3326077927E+02  1.7557636355E+02 0. 9.
      -6    1    1    2    0  102 -3.3684902047E+01 -9.4721431231E+01  2.6985053366E+02  3.3538274512E+02  1.7191699464E+02 0. 9.
#pdf     2   -2  3.3437446158E-01  4.4995566534E-01  2.0074381286E+02  2.8569717079E-01  1.5230272573E-01
</event>
<event>
     4    81  1.000000E+00  1.914292E+02  7.828610E-03  1.140685E-01
       2   -1    0    0  101    0  0.0000000000E+00  0.0000000000E+00  2.7032204160E+02  2.7032204160E+02  0.0000000000E+00 0. 9.
      -2   -1    0    0    0  102  0.0000000000E+00  0.0000000000E+00 -1.4488484774E+02  1.4488484774E+02  0.0000000000E+00 0. 9.
       6    1    1    2  101    0 -4.7828880806E+01 -4.5924141057E+01  1.1628256916E+02  2.2627629313E+02  1.8243545809E+02 0. 9.
      -6    1    1    2    0  102  4.7828880806E+01  4.5924141057E+01  9.1546247004E+00  1.8893059621E+02  1.7667578911E+02 0. 9.
#pdf     2   -2  2.7583881796E-01  1.4784168136E-01  1.9142921403E+02  3.6751303814E-01  5.2407902205E-01
</event>
<event>
     4    81  1.000000E+00  2.006447E+02  7.832761E-03  1.133269E-01
       2   -1    0    0  101    0  0.0000000000E+00  0.0000000000E+00  9.0642848113E+01  9.0642848113E+01  0.0000000000E+00 0. 9.
      -2   -1    0    0    0  102  0.0000000000E+00  0.0000000000E+00 -4.5134335725E+02  4.5134335725E+02  0.0000000000E+00 0. 9.
       6    1    1    2  101    0  5.3033149673E+01 -7.9472874554E+01 -1.4477241363E+02  2.4623371072E+02  1.7476709014E+02 0. 9.
      -6    1    1    2    0  102 -5.3033149673E+01  7.9472874554E+01 -2.1592809551E+02  2.9575249464E+02  1.7809026616E+02 0. 9.
#pdf     2   -2  9.2492702157E-02  4.6055444618E-01  2.0064469119E+02  5.6041197383E-01  1.4239601412E-01
</event>
</LesHouchesEvents>
