<LesHouchesEvents version="1.0">
<!--
File generated with PYTHIA 6.413
-->
<init>
    2212   -2212  9.800000E+02  9.800000E+02     0     0     7     7     3     2
  5.220106E+00  5.384128E-01  1.000000E+00    81
  2.602564E-01  1.062492E-01  1.000000E+00    82
</init>
<event>
    12    81  1.000000E+00  1.733125E+02  7.819848E-03  1.156692E-01
       2   -1    0    0  101    0  0.0000000000E+00  0.0000000000E+00  1.0838163607E+02  1.0838163607E+02  0.0000000000E+00 0. 9.
      -2   -1    0    0    0  102  0.0000000000E+00  0.0000000000E+00 -2.7976111253E+02  2.7976111253E+02  0.0000000000E+00 0. 9.
       6    2    1    2  101    0  3.3629095553E+01  8.9115695965E+00 -1.1059648961E+02  2.1241781824E+02  1.7798711709E+02 0. 9.
      -6    2    1    2    0  102 -3.3629095553E+01 -8.9115695965E+00 -6.0782986840E+01  1.7572493036E+02  1.6116559038E+02 0. 9.
      24    2    3    0    0    0 -3.0884654830E+01 -1.2140252163E+01 -4.7852784957E+00  8.6623320800E+01  7.9871479200E+01 0. 9.
       5    1    3    0  101    0  6.4513750383E+01  2.1051821759E+01 -1.0581121112E+02  1.2579449744E+02  4.8000000000E+00 0. 9.
     -24    2    4    0    0    0 -5.0940382043E+01  3.4880802250E+01 -7.5291578188E+01  1.2621743906E+02  8.0314552164E+01 0. 9.
      -5    1    4    0    0  102  1.7311286490E+01 -4.3792371846E+01  1.4508591348E+01  4.9507491299E+01  4.8000000000E+00 0. 9.
      -1    1    5    0    0  103  1.8584463332E+01  9.1657242037E+00  1.8652036768E+01  2.7881896512E+01  3.3000000000E-01 0. 9.
       2    1    5    0  103    0 -4.9469118162E+01 -2.1305976366E+01 -2.3437315264E+01  5.8741424288E+01  3.3000000000E-01 0. 9.
      13    1    7    0    0    0  9.6912588119E+00  3.9074488577E+01 -2.5560060185E+01  4.7687147069E+01  1.0566000000E-01 0. 9.
     -14    1    7    0    0    0 -6.0631640855E+01 -4.1936863270E+00 -4.9731518002E+01  7.8530291993E+01  0.0000000000E+00 0. 9.
#pdf     2   -2  1.1059350620E-01  2.8547052299E-01  1.7331247164E+02  5.5300424188E-01  3.5718362666E-01
</event>
<event>
    12    81  1.000000E+00  2.453729E+02  7.850576E-03  1.102586E-01
       2   -1    0    0  101    0  0.0000000000E+00  0.0000000000E+00  1.4168500180E+02  1.4168500180E+02  0.0000000000E+00 0. 9.
      -2   -1    0    0    0  102  0.0000000000E+00  0.0000000000E+00 -5.1193431229E+02  5.1193431229E+02  0.0000000000E+00 0. 9.
       6    2    1    2  101    0  1.4483021237E+02 -9.1836222700E+01 -3.2020944169E+02  4.0376632938E+02  1.7630507646E+02 0. 9.
      -6    2    1    2    0  102 -1.4483021237E+02  9.1836222700E+01 -5.0039868808E+01  2.4985298471E+02  1.7467925831E+02 0. 9.
      24    2    3    0    0    0  6.6573250937E+01 -1.0557760324E+02 -2.7628620725E+02  3.1285280962E+02  7.7228130408E+01 0. 9.
       5    1    3    0  101    0  7.8256961429E+01  1.3741380542E+01 -4.3923234434E+01  9.0913519757E+01  4.8000000000E+00 0. 9.
     -24    2    4    0    0    0 -5.2331928485E+01  1.3655957736E+01  3.5832022017E+01  1.0130969814E+02  7.7811343743E+01 0. 9.
      -5    1    4    0    0  102 -9.2498283882E+01  7.8180264964E+01 -8.5871890826E+01  1.4854328657E+02  4.8000000000E+00 0. 9.
      -3    1    5    0    0  103  1.3698476364E+01 -8.8968981168E+01 -1.5010039084E+02  1.7502429887E+02  5.0000000000E-01 0. 9.
       4    1    5    0  103    0  5.2874774574E+01 -1.6608622073E+01 -1.2618581641E+02  1.3782851075E+02  1.5000000000E+00 0. 9.
      15    1    7    0    0    0 -5.3810426731E+01 -1.6793177176E+00 -8.3584775043E+00  5.4510586203E+01  1.7770000000E+00 0. 9.
     -16    1    7    0    0    0  1.4784982465E+00  1.5335275454E+01  4.4190499522E+01  4.6799111939E+01  0.0000000000E+00 0. 9.
#pdf     2   -2  1.4457653245E-01  5.2238195132E-01  2.4537286698E+02  5.2138927060E-01  8.9715910577E-02
</event>
<event>
    12    81  1.000000E+00  1.776410E+02  7.822020E-03  1.152678E-01
       2   -1    0    0  101    0  0.0000000000E+00  0.0000000000E+00  2.1971684569E+02  2.1971684569E+02  0.0000000000E+00 0. 9.
      -2   -1    0    0    0  102  0.0000000000E+00  0.0000000000E+00 -1.4407440590E+02  1.4407440590E+02  0.0000000000E+00 0. 9.
       6    2    1    2  101    0 -2.8007358027E+01 -1.4336341199E+01  4.8014156840E+01  1.8405373765E+02  1.7487274317E+02 0. 9.
      -6    2    1    2    0  102  2.8007358027E+01  1.4336341199E+01  2.7628282952E+01  1.7973751394E+02  1.7479218837E+02 0. 9.
      24    2    3    0    0    0 -1.9076498236E+01 -7.5377093349E+01  1.2033037033E+01  1.1247570567E+02  8.0376435601E+01 0. 9.
       5    1    3    0  101    0 -8.9308597910E+00  6.1040752150E+01  3.5981119807E+01  7.1578031980E+01  4.8000000000E+00 0. 9.
     -24    2    4    0    0    0 -1.6204445062E+01  4.9039786977E+01 -3.0703182195E+01  9.8591888630E+01  7.8167706633E+01 0. 9.
      -5    1    4    0    0  102  4.4211803088E+01 -3.4703445778E+01  5.8331465148E+01  8.1145625313E+01  4.8000000000E+00 0. 9.
      -1    1    5    0    0  103  1.8159044482E+01 -6.8058553500E+00  2.6779046411E+01  3.3065038791E+01  3.3000000000E-01 0. 9.
       2    1    5    0  103    0 -3.7235542717E+01 -6.8571237999E+01 -1.4746009379E+01  7.9410666883E+01  3.3000000000E-01 0. 9.
       1    1    7    0  104    0  1.6465237456E+01  5.7169697352E+01 -2.4579279760E+01  6.4371796878E+01  3.3000000000E-01 0. 9.
      -2    1    7    0    0  104 -3.2669682518E+01 -8.1299103748E+00 -6.1239024357E+00  3.4220091752E+01  3.3000000000E-01 0. 9.
#pdf     2   -2  2.2420086295E-01  1.4701469990E-01  1.7764102987E+02  4.4040101215E-01  5.2651382636E-01
</event>
<event>
    12    81  1.000000E+00  2.161450E+02  7.839339E-03  1.121726E-01
       2   -1    0    0  101    0  0.0000000000E+00  0.0000000000E+00  2.0905097329E+02  2.0905097329E+02  0.0000000000E+00 0. 9.
      -2   -1    0    0    0  102  0.0000000000E+00  0.0000000000E+00 -2.2387000524E+02  2.2387000524E+02  0.0000000000E+00 0. 9.
       6    2    1    2  101    0 -2.8666225329E+01  1.2254465689E+02 -1.6459167668E+01  2.1588531728E+02  1.7463281654E+02 0. 9.
      -6    2    1    2    0  102  2.8666225329E+01 -1.2254465689E+02  1.6401357138E+00  2.1703566125E+02  1.7681301650E+02 0. 9.
      24    2    3    0    0    0  4.3122883270E+01  9.3368100532E+01  1.9268215950E+01  1.3041933870E+02  7.7850847804E+01 0. 9.
       5    1    3    0  101    0 -7.1789108599E+01  2.9176556359E+01 -3.5727383618E+01  8.5465978580E+01  4.8000000000E+00 0. 9.
     -24    2    4    0    0    0  8.0222330450E+01 -8.3419791329E+01  3.4131504051E+01  1.4445800562E+02  7.9427148575E+01 0. 9.
      -5    1    4    0    0  102 -5.1556105120E+01 -3.9124865562E+01 -3.2491368337E+01  7.2577655631E+01  4.8000000000E+00 0. 9.
      -1    1    5    0    0  103 -2.0727740885E+01  8.6000619505E+00  7.4013836638E+00  2.3632386420E+01  3.3000000000E-01 0. 9.
       2    1    5    0  103    0  6.3850624155E+01  8.4768038581E+01  1.1866832286E+01  1.0678695229E+02  3.3000000000E-01 0. 9.
      15    1    7    0    0    0  2.3287382355E+01 -7.9738850156E+01  2.4246092562E+01  8.6554128351E+01  1.7770000000E+00 0. 9.
     -16    1    7    0    0    0  5.6934948095E+01 -3.6809411735E+00  9.8854114887E+00  5.7903877269E+01  0.0000000000E+00 0. 9.
#pdf     2   -2  2.1331731968E-01  2.2843878086E-01  2.1614503722E+02  4.4865471863E-01  4.2889225859E-01
</event>
<event>
    12    81  1.000000E+00  2.722156E+02  7.859798E-03  1.087399E-01
       1   -1    0    0  101    0  0.0000000000E+00  0.0000000000E+00  3.0998147853E+02  3.0998147853E+02  0.0000000000E+00 0. 9.
      -1   -1    0    0    0  102  0.0000000000E+00  0.0000000000E+00 -4.2658276564E+02  4.2658276564E+02  0.0000000000E+00 0. 9.
       6    2    1    2  101    0  1.5202805136E+02 -1.3564883740E+02 -3.0207433868E+02  4.0425677542E+02  1.7510425150E+02 0. 9.
      -6    2    1    2    0  102 -1.5202805136E+02  1.3564883740E+02  1.8547305157E+02  3.3230746875E+02  1.8578176832E+02 0. 9.
      24    2    3    0    0    0  7.0178719712E+01 -1.1462538992E+02 -2.7233123119E+02  3.1454060698E+02  8.1899091839E+01 0. 9.
       5    1    3    0  101    0  8.1849331652E+01 -2.1023447476E+01 -2.9743107493E+01  8.9716168437E+01  4.8000000000E+00 0. 9.
     -24    2    4    0    0    0 -1.2759536169E+02  1.6377098894E+02  1.1113217675E+02  2.4901630836E+02  8.0976836044E+01 0. 9.
      -5    1    4    0    0  102 -2.4432689677E+01 -2.8122151538E+01  7.4340874815E+01  8.3291160397E+01  4.8000000000E+00 0. 9.
     -11    1    5    0    0    0  6.6986380224E+01 -9.2588244672E+01 -1.4177276647E+02  1.8209688493E+02  5.1000000000E-04 0. 9.
      12    1    5    0    0    0  3.1923394877E+00 -2.2037145252E+01 -1.3055846472E+02  1.3244372206E+02  0.0000000000E+00 0. 9.
       3    1    7    0  103    0 -4.5335729587E+01  4.3867031558E+01  7.7191694899E+01  9.9691788008E+01  5.0000000000E-01 0. 9.
      -4    1    7    0    0  103 -8.2259632100E+01  1.1990395738E+02  3.3940481854E+01  1.4932452035E+02  1.5000000000E+00 0. 9.
#pdf     1   -1  3.1630763115E-01  4.3528853637E-01  2.7221557203E+02  1.1050631792E-01  4.7561700247E-02
</event>
<event>
    12    81  1.000000E+00  1.977178E+02  7.831463E-03  1.135577E-01
       2   -1    0    0  101    0  0.0000000000E+00  0.0000000000E+00  1.1823767072E+02  1.1823767072E+02  0.0000000000E+00 0. 9.
      -2   -1    0    0    0  102  0.0000000000E+00  0.0000000000E+00 -4.8148219772E+02  4.8148219772E+02  0.0000000000E+00 0. 9.
       6    2    1    2  101    0 -8.4928893369E+01  2.4123465107E+01 -1.4991519216E+01  2.0021660930E+02  1.7907285247E+02 0. 9.
      -6    2    1    2    0  102  8.4928893369E+01 -2.4123465107E+01 -3.4825300778E+02  3.9950325915E+02  1.7472217416E+02 0. 9.
      24    2    3    0    0    0 -1.1650448565E+02 -1.5078974208E-01  2.4126028322E+01  1.4418554647E+02  8.1449914996E+01 0. 9.
       5    1    3    0  101    0  3.1575592283E+01  2.4274254849E+01 -3.9117547538E+01  5.6031062830E+01  4.8000000000E+00 0. 9.
     -24    2    4    0    0    0  5.7935094570E+01  4.8480092038E+01 -2.5062691315E+02  2.7478823986E+02  8.3593855407E+01 0. 9.
      -5    1    4    0    0  102  2.6993798799E+01 -7.2603557145E+01 -9.7626094629E+01  1.2471501929E+02  4.8000000000E+00 0. 9.
     -11    1    5    0    0    0 -8.2872280006E+01 -7.5913977740E+00 -2.2508140913E+01  8.6209399262E+01  5.1000000000E-04 0. 9.
      12    1    5    0    0    0 -3.3632205646E+01  7.4406080319E+00  4.6634169235E+01  5.7976147205E+01  0.0000000000E+00 0. 9.
       3    1    7    0  103    0  7.8662492185E+01  4.4746476970E+01 -1.8697297810E+02  2.0772380561E+02  5.0000000000E-01 0. 9.
      -4    1    7    0    0  103 -2.0727397615E+01  3.7336150680E+00 -6.3653935055E+01  6.7064434250E+01  1.5000000000E+00 0. 9.
#pdf     2   -2  1.2065068441E-01  4.9130836502E-01  1.9771778073E+02  5.4447327184E-01  1.1619205578E-01
</event>
<event>
    12    81  1.000000E+00  1.778823E+02  7.822140E-03  1.152458E-01
       2   -1    0    0  101    0  0.0000000000E+00  0.0000000000E+00  2.6099463532E+02  2.6099463532E+02  0.0000000000E+00 0. 9.
      -2   -1    0    0    0  102  0.0000000000E+00  0.0000000000E+00 -1.2339705519E+02  1.2339705519E+02  0.0000000000E+00 0. 9.
       6    2    1    2  101    0  1.1263886129E+01 -3.0918480940E+01  9.3920878645E+01  2.0039694932E+02  1.7393958220E+02 0. 9.
      -6    2    1    2    0  102 -1.1263886129E+01  3.0918480940E+01  4.3676701490E+01  1.8399474119E+02  1.7568034306E+02 0. 9.
      24    2    3    0    0    0  2.3686034966E+01 -3.1285621318E+01 -1.8359766575E+01  8.7328705038E+01  7.5824820087E+01 0. 9.
       5    1    3    0  101    0 -1.2422148837E+01  3.6714037733E-01  1.1228064522E+02  1.1306824428E+02  4.8000000000E+00 0. 9.
     -24    2    4    0    0    0 -9.7678187022E+00 -2.6477734534E+00  9.3092581616E+01  1.2404558890E+02  8.1355137433E+01 0. 9.
      -5    1    4    0    0  102 -1.4960674270E+00  3.3566254394E+01 -4.9415880126E+01  5.9949152291E+01  4.8000000000E+00 0. 9.
      -1    1    5    0    0  103  3.7923403358E+01 -4.2796342204E+01  5.2809339439E+00  5.7425678852E+01  3.3000000000E-01 0. 9.
       2    1    5    0  103    0 -1.4237368392E+01  1.1510720887E+01 -2.3640700519E+01  2.9903026186E+01  3.3000000000E-01 0. 9.
      13    1    7    0    0    0 -1.8752289513E+01  2.6628018535E+01  7.8954453617E+00  3.3511922573E+01  1.0566000000E-01 0. 9.
     -14    1    7    0    0    0  8.9844708106E+00 -2.9275791988E+01  8.5197136254E+01  9.0533666325E+01  0.0000000000E+00 0. 9.
#pdf     2   -2  2.6632105645E-01  1.2591536243E-01  1.7788228746E+02  3.8308755338E-01  5.4288594974E-01
</event>
<event>
    12    81  1.000000E+00  1.900883E+02  7.827990E-03  1.141802E-01
       2   -1    0    0  101    0  0.0000000000E+00  0.0000000000E+00  2.5577458420E+02  2.5577458420E+02  0.0000000000E+00 0. 9.
      -2   -1    0    0    0  102  0.0000000000E+00  0.0000000000E+00 -3.7117852951E+02  3.7117852951E+02  0.0000000000E+00 0. 9.
       6    2    1    2  101    0 -2.9845004492E+00 -6.9372751383E+01 -3.0431396972E+02  3.5834295286E+02  1.7601475455E+02 0. 9.
      -6    2    1    2    0  102  2.9845004492E+00  6.9372751383E+01  1.8891002442E+02  2.6861016085E+02  1.7788461234E+02 0. 9.
      24    2    3    0    0    0 -1.3510514296E+01 -1.1983064404E+01 -1.7255143467E+01  6.5375065765E+01  6.0415489889E+01 0. 9.
       5    1    3    0  101    0  1.0526013847E+01 -5.7389686979E+01 -2.8705882626E+02  2.9296788710E+02  4.8000000000E+00 0. 9.
     -24    2    4    0    0    0 -1.8301616961E+01 -5.9180129299E+00  1.7238481378E+02  1.8849823557E+02  7.3790844497E+01 0. 9.
      -5    1    4    0    0  102  2.1286117411E+01  7.5290764313E+01  1.6525210640E+01  8.0111925280E+01  4.8000000000E+00 0. 9.
      -1    1    5    0    0  103  2.1753813513E+01 -3.2658821140E+00  5.2482805834E+00  2.2617421104E+01  3.3000000000E-01 0. 9.
       4    1    5    0  103    0 -3.5264327809E+01 -8.7171822903E+00 -2.2503424051E+01  4.2757644660E+01  1.5000000000E+00 0. 9.
       3    1    7    0  104    0 -1.3733963202E+01 -2.6454963603E+01  2.3036984787E+01  3.7675449732E+01  5.0000000000E-01 0. 9.
      -2    1    7    0    0  104 -4.5676537596E+00  2.0536950673E+01  1.4934782899E+02  1.5082278584E+02  3.3000000000E-01 0. 9.
#pdf     2   -2  2.6099447368E-01  3.7875360154E-01  1.9008827013E+02  3.8841049381E-01  2.3083102704E-01
</event>
<event>
    12    81  1.000000E+00  1.921521E+02  7.828943E-03  1.140087E-01
       2   -1    0    0  101    0  0.0000000000E+00  0.0000000000E+00  3.3327293404E+02  3.3327293404E+02  0.0000000000E+00 0. 9.
      -2   -1    0    0    0  102  0.0000000000E+00  0.0000000000E+00 -1.1233549914E+02  1.1233549914E+02  0.0000000000E+00 0. 9.
       6    2    1    2  101    0 -7.2186236395E+01 -2.6508927371E+01  1.3617454133E+02  2.3483834562E+02  1.7519122955E+02 0. 9.
      -6    2    1    2    0  102  7.2186236395E+01  2.6508927371E+01  8.4762893562E+01  2.1077008755E+02  1.7699069390E+02 0. 9.
      24    2    3    0    0    0 -6.0725574853E+01  4.0236415525E+01  1.2777810317E+02  1.6642907918E+02  7.7877019542E+01 0. 9.
       5    1    3    0  101    0 -1.1460661541E+01 -6.6745342896E+01  8.3964381691E+00  6.8409266443E+01  4.8000000000E+00 0. 9.
     -24    2    4    0    0    0  4.0524601941E+01  2.2384234218E+01  1.2742763770E+02  1.5726501693E+02  7.9694324732E+01 0. 9.
      -5    1    4    0    0  102  3.1661634454E+01  4.1246931530E+00 -4.2664744140E+01  5.3505070624E+01  4.8000000000E+00 0. 9.
     -11    1    5    0    0    0 -2.4188725519E+01 -2.3113814164E+01  3.7792689315E+01  5.0474054854E+01  5.1000000000E-04 0. 9.
      12    1    5    0    0    0 -3.6536849334E+01  6.3350229689E+01  8.9985413851E+01  1.1595502433E+02  0.0000000000E+00 0. 9.
      15    1    7    0    0    0  6.7367895904E+00 -1.5813405524E+01 -2.7105805114E+00  1.7491515199E+01  1.7770000000E+00 0. 9.
     -16    1    7    0    0    0  3.3787812351E+01  3.8197639742E+01  1.3013821821E+02  1.3977350173E+02  0.0000000000E+00 0. 9.
#pdf     2   -2  3.4007442249E-01  1.1462806035E-01  1.9215205509E+02  2.7944058853E-01  5.4886639903E-01
</event>
<event>
    12    81  1.000000E+00  1.882896E+02  7.827151E-03  1.143317E-01
       2   -1    0    0  101    0  0.0000000000E+00  0.0000000000E+00  1.2323582679E+02  1.2323582679E+02  0.0000000000E+00 0. 9.
      -2   -1    0    0    0  102  0.0000000000E+00  0.0000000000E+00 -2.8855087432E+02  2.8855087432E+02  0.0000000000E+00 0. 9.
       6    2    1    2  101    0 -4.5553798592E+01 -5.2784881350E+01 -7.1957233531E+01  2.0312682131E+02  1.7669541537E+02 0. 9.
      -6    2    1    2    0  102  4.5553798592E+01  5.2784881350E+01 -9.3357813997E+01  2.0865987980E+02  1.7309497896E+02 0. 9.
      24    2    3    0    0    0 -8.1571698800E+01 -2.2162248060E+01 -7.1540106618E-01  1.1749111907E+02  8.1599901818E+01 0. 9.
       5    1    3    0  101    0  3.6017900208E+01 -3.0622633290E+01 -7.1241832465E+01  8.5635702239E+01  4.8000000000E+00 0. 9.
     -24    2    4    0    0    0 -2.6703464776E+01 -7.8059443722E+00 -2.0801136984E+01  8.9580613556E+01  8.2571128288E+01 0. 9.
      -5    1    4    0    0  102  7.2257263368E+01  6.0590825722E+01 -7.2556677013E+01  1.1907926625E+02  4.8000000000E+00 0. 9.
      -1    1    5    0    0  103 -1.9411030339E+01 -4.4872489528E+01  1.1418605484E+01  5.0207786911E+01  3.3000000000E-01 0. 9.
       2    1    5    0  103    0 -6.2160668461E+01  2.2710241469E+01 -1.2134006550E+01  6.7283332156E+01  3.3000000000E-01 0. 9.
      11    1    7    0    0    0 -1.4415944492E+01 -4.5138876176E+01 -1.5856918349E+01  4.9967784199E+01  5.1000000000E-04 0. 9.
     -12    1    7    0    0    0 -1.2287520284E+01  3.7332931803E+01 -4.9442186352E+00  3.9612829357E+01  0.0000000000E+00 0. 9.
#pdf     2   -2  1.2575084366E-01  2.9443966767E-01  1.8828957231E+02  5.4189719927E-01  3.4208784155E-01
</event>
<event>
    12    81  1.000000E+00  2.276558E+02  7.843932E-03  1.113817E-01
       2   -1    0    0  101    0  0.0000000000E+00  0.0000000000E+00  3.3003278427E+02  3.3003278427E+02  0.0000000000E+00 0. 9.
      -2   -1    0    0    0  102  0.0000000000E+00  0.0000000000E+00 -1.5733949630E+02  1.5733949630E+02  0.0000000000E+00 0. 9.
       6    2    1    2  101    0  1.4621986966E+02  1.4224272801E+01  9.7259945764E+01  2.4805347913E+02  1.7460942482E+02 0. 9.
      -6    2    1    2    0  102 -1.4621986966E+02 -1.4224272801E+01  7.5433342204E+01  2.3931880145E+02  1.7320715744E+02 0. 9.
      24    2    3    0    0    0  1.1163549205E+02  4.1106180395E+01  1.2843174520E+02  1.9407721387E+02  8.3779774515E+01 0. 9.
       5    1    3    0  101    0  3.4584377617E+01 -2.6881907594E+01 -3.1171799435E+01  5.3976265257E+01  4.8000000000E+00 0. 9.
     -24    2    4    0    0    0 -1.0743500559E+02  9.0270333921E+00  1.1666925486E+02  1.7793208127E+02  8.0151997842E+01 0. 9.
      -5    1    4    0    0  102 -3.8784864073E+01 -2.3251306193E+01 -4.1235912659E+01  6.1386720173E+01  4.8000000000E+00 0. 9.
     -13    1    5    0    0    0  1.1509953872E+02  1.1992515466E+01  1.0844314537E+02  1.5859272109E+02  1.0566000000E-01 0. 9.
      14    1    5    0    0    0 -3.4640466718E+00  2.9113664929E+01  1.9988599833E+01  3.5484492785E+01  0.0000000000E+00 0. 9.
      15    1    7    0    0    0 -7.6348831321E+01  4.1397842038E+01  5.9684584567E+01  1.0539607551E+02  1.7770000000E+00 0. 9.
     -16    1    7    0    0    0 -3.1086174269E+01 -3.2370808646E+01  5.6984670295E+01  7.2536005761E+01  0.0000000000E+00 0. 9.
#pdf     2   -2  3.3676814722E-01  1.6055050643E-01  2.2765580496E+02  2.7892073286E-01  5.0805402934E-01
</event>
<event>
    12    81  1.000000E+00  1.967598E+02  7.831034E-03  1.136341E-01
       2   -1    0    0  101    0  0.0000000000E+00  0.0000000000E+00  1.3831088605E+02  1.3831088605E+02  0.0000000000E+00 0. 9.
      -2   -1    0    0    0  102  0.0000000000E+00  0.0000000000E+00 -3.0786445738E+02  3.0786445738E+02  0.0000000000E+00 0. 9.
       6    2    1    2  101    0  6.9295501614E+01  5.7171910505E+01 -1.5204965693E+02  2.4875956548E+02  1.7519055154E+02 0. 9.
      -6    2    1    2    0  102 -6.9295501614E+01 -5.7171910505E+01 -1.7503914392E+01  1.9741577795E+02  1.7491743329E+02 0. 9.
      24    2    3    0    0    0  1.1531466167E+02  4.1716499059E+01 -1.0619634677E+02  1.8181033929E+02  8.2095054139E+01 0. 9.
       5    1    3    0  101    0 -4.6019160056E+01  1.5455411447E+01 -4.5853310164E+01  6.6949226197E+01  4.8000000000E+00 0. 9.
     -24    2    4    0    0    0 -1.0069395291E+02  3.2423203377E+00 -5.7131198883E+00  1.2814958946E+02  7.8992991759E+01 0. 9.
      -5    1    4    0    0  102  3.1398451296E+01 -6.0414230843E+01 -1.1790794504E+01  6.9266188485E+01  4.8000000000E+00 0. 9.
      -3    1    5    0    0  103  5.2631175513E+00 -2.4860784074E+00 -5.0395996189E+01  5.0733494104E+01  5.0000000000E-01 0. 9.
       4    1    5    0  103    0  1.1005154412E+02  4.4202577466E+01 -5.5800350581E+01  1.3107684518E+02  1.5000000000E+00 0. 9.
      11    1    7    0    0    0 -4.0868762945E+00  1.2445144546E+01  2.3413307258E+01  2.6828476245E+01  5.1000000000E-04 0. 9.
     -12    1    7    0    0    0 -9.6607076616E+01 -9.2028242085E+00 -2.9126427146E+01  1.0132111322E+02  0.0000000000E+00 0. 9.
#pdf     2   -2  1.4113355720E-01  3.1414740549E-01  1.9675978452E+02  5.2919937997E-01  3.1355051346E-01
</event>
<event>
    12    81  1.000000E+00  2.040243E+02  7.834236E-03  1.130657E-01
       2   -1    0    0  101    0  0.0000000000E+00  0.0000000000E+00  1.5159803101E+02  1.5159803101E+02  0.0000000000E+00 0. 9.
      -2   -1    0    0    0  102  0.0000000000E+00  0.0000000000E+00 -3.0358090217E+02  3.0358090217E+02  0.0000000000E+00 0. 9.
       6    2    1    2  101    0  1.0331713314E+02 -1.0247180665E+01 -5.8663463266E+00  2.0476004309E+02  1.7638828339E+02 0. 9.
      -6    2    1    2    0  102 -1.0331713314E+02  1.0247180665E+01 -1.4611652483E+02  2.5041889008E+02  1.7487180153E+02 0. 9.
      24    2    3    0    0    0  1.2860384688E+02  1.6095327339E+01 -3.7910446139E+01  1.5594191170E+02  7.7991466859E+01 0. 9.
       5    1    3    0  101    0 -2.5286713745E+01 -2.6342508004E+01  3.2044099813E+01  4.8818131393E+01  4.8000000000E+00 0. 9.
     -24    2    4    0    0    0 -1.0864848922E+02  5.2407534676E+01 -1.4926638310E+02  2.0753672112E+02  7.8993630032E+01 0. 9.
      -5    1    4    0    0  102  5.3313560875E+00 -4.2160354011E+01  3.1498582703E+00  4.2882168966E+01  4.8000000000E+00 0. 9.
      -3    1    5    0    0  103  2.2076521338E+01  2.9947916366E+01 -3.0746719078E+01  4.8268636019E+01  5.0000000000E-01 0. 9.
       4    1    5    0  103    0  1.0652732554E+02 -1.3852589027E+01 -7.1637270616E+00  1.0767327568E+02  1.5000000000E+00 0. 9.
       3    1    7    0  104    0 -1.9819203702E+01  5.7994873480E+00  7.0230480846E+00  2.1817609706E+01  5.0000000000E-01 0. 9.
      -4    1    7    0    0  104 -8.8829285523E+01  4.6608047328E+01 -1.5628943119E+02  1.8571911141E+02  1.5000000000E+00 0. 9.
#pdf     2   -2  1.5469186838E-01  3.0977643078E-01  2.0402431584E+02  5.1635908468E-01  3.1844175150E-01
</event>
<event>
    12    81  1.000000E+00  2.356700E+02  7.846998E-03  1.108604E-01
       2   -1    0    0  101    0  0.0000000000E+00  0.0000000000E+00  3.4510480961E+02  3.4510480961E+02  0.0000000000E+00 0. 9.
      -2   -1    0    0    0  102  0.0000000000E+00  0.0000000000E+00 -1.7098700315E+02  1.7098700315E+02  0.0000000000E+00 0. 9.
       6    2    1    2  101    0 -1.3994401502E+02 -7.3453277144E+01  1.4962609281E+02  2.7917827781E+02  1.7485088473E+02 0. 9.
      -6    2    1    2    0  102  1.3994401502E+02  7.3453277144E+01  2.4491713651E+01  2.3691353495E+02  1.7478119963E+02 0. 9.
      24    2    3    0    0    0 -1.3152022989E+02 -1.3170463823E+01  1.5427914288E+02  2.1794374006E+02  7.8907464273E+01 0. 9.
       5    1    3    0  101    0 -8.4237851308E+00 -6.0282813322E+01 -4.6530500739E+00  6.1234537746E+01  4.8000000000E+00 0. 9.
     -24    2    4    0    0    0  1.1497510636E+02 -1.5161393087E+01 -5.6979930696E+00  1.3990598591E+02  7.8051744664E+01 0. 9.
      -5    1    4    0    0  102  2.4968908658E+01  8.8614670231E+01  3.0189706720E+01  9.7007549045E+01  4.8000000000E+00 0. 9.
      -1    1    5    0    0  103 -1.2010245688E+02 -3.4492537510E+01  1.4645943114E+02  1.9252223030E+02  3.3000000000E-01 0. 9.
       2    1    5    0  103    0 -1.1417773013E+01  2.1322073687E+01  7.8197117454E+00  2.5421509764E+01  3.3000000000E-01 0. 9.
       1    1    7    0  104    0  3.7493719595E+01 -1.1287053406E+01  3.4805684805E+01  5.2390086642E+01  3.3000000000E-01 0. 9.
      -2    1    7    0    0  104  7.7481386766E+01 -3.8743396811E+00 -4.0503677874E+01  8.7515899267E+01  3.3000000000E-01 0. 9.
#pdf     2   -2  3.5214776491E-01  1.7447653383E-01  2.3567002584E+02  2.5804642541E-01  4.9263742744E-01
</event>
<event>
    12    81  1.000000E+00  2.416862E+02  7.849233E-03  1.104837E-01
       2   -1    0    0  101    0  0.0000000000E+00  0.0000000000E+00  2.4691238079E+02  2.4691238079E+02  0.0000000000E+00 0. 9.
      -2   -1    0    0    0  102  0.0000000000E+00  0.0000000000E+00 -2.8041299346E+02  2.8041299346E+02  0.0000000000E+00 0. 9.
       6    2    1    2  101    0  4.0903362729E+01  1.6239969097E+02 -1.2101023706E+02  2.7036572107E+02  1.7437718013E+02 0. 9.
      -6    2    1    2    0  102 -4.0903362729E+01 -1.6239969097E+02  8.7509624392E+01  2.5695965317E+02  1.7413668277E+02 0. 9.
      24    2    3    0    0    0  7.6791142631E+01  4.0951736213E+01 -2.7015911336E+01  1.1258260496E+02  6.6113986342E+01 0. 9.
       5    1    3    0  101    0 -3.5887779901E+01  1.2144795476E+02 -9.3994325724E+01  1.5778311611E+02  4.8000000000E+00 0. 9.
     -24    2    4    0    0    0 -9.4049218468E+00 -1.4749130068E+02  1.2269480645E+02  2.0720576975E+02  7.7705078064E+01 0. 9.
      -5    1    4    0    0  102 -3.1498440883E+01 -1.4908390293E+01 -3.5185182059E+01  4.9753883423E+01  4.8000000000E+00 0. 9.
      -1    1    5    0    0  103  3.5769229390E+01  6.4199782238E+00  1.9811591897E+01  4.1391568768E+01  3.3000000000E-01 0. 9.
       2    1    5    0  103    0  4.1021913240E+01  3.4531757989E+01 -4.6827503234E+01  7.1191036197E+01  3.3000000000E-01 0. 9.
       3    1    7    0  104    0  3.3039261649E+01 -4.3449811745E+01  3.9016533372E+01  6.7097085088E+01  5.0000000000E-01 0. 9.
      -4    1    7    0    0  104 -4.2444183496E+01 -1.0404148893E+02  8.3678273079E+01  1.4010868466E+02  1.5000000000E+00 0. 9.
#pdf     2   -2  2.5195140897E-01  2.8613570761E-01  2.4168623736E+02  3.9359932269E-01  3.4605381119E-01
</event>
<event>
    12    81  1.000000E+00  2.314095E+02  7.845381E-03  1.111347E-01
       2   -1    0    0  101    0  0.0000000000E+00  0.0000000000E+00  2.2226610409E+02  2.2226610409E+02  0.0000000000E+00 0. 9.
      -2   -1    0    0    0  102  0.0000000000E+00  0.0000000000E+00 -3.1754327026E+02  3.1754327026E+02  0.0000000000E+00 0. 9.
       6    2    1    2  101    0 -9.0281535202E+01 -1.2072899991E+02  8.4860742755E+01  2.4694141558E+02  1.7621711055E+02 0. 9.
      -6    2    1    2    0  102  9.0281535202E+01  1.2072899991E+02 -1.8013790893E+02  2.9286795877E+02  1.7491634579E+02 0. 9.
      24    2    3    0    0    0 -1.0727766305E+02 -2.8329327581E+01  6.0983535575E+01  1.4988612808E+02  8.0223512707E+01 0. 9.
       5    1    3    0  101    0  1.6996127845E+01 -9.2399672326E+01  2.3877207180E+01  9.7055287493E+01  4.8000000000E+00 0. 9.
     -24    2    4    0    0    0  1.6859031636E+00  7.8137706437E+00 -1.0272062047E+02  1.2972534764E+02  7.8824124908E+01 0. 9.
      -5    1    4    0    0  102  8.8595632039E+01  1.1291522926E+02 -7.7417288456E+01  1.6314261113E+02  4.8000000000E+00 0. 9.
     -13    1    5    0    0    0 -9.8866480606E+01  7.9552704280E+00  4.9864956277E+01  1.1101527978E+02  1.0566000000E-01 0. 9.
      14    1    5    0    0    0 -8.4111824410E+00 -3.6284598009E+01  1.1118579298E+01  3.8870848310E+01  0.0000000000E+00 0. 9.
       3    1    7    0  103    0 -1.4292375230E+00 -1.1502263654E+01  9.9956931020E+00  1.5313675903E+01  5.0000000000E-01 0. 9.
      -4    1    7    0    0  103  3.1151406866E+00  1.9316034298E+01 -1.1271631358E+02  1.1441167173E+02  1.5000000000E+00 0. 9.
#pdf     2   -2  2.2680214703E-01  3.2402374516E-01  2.3140947702E+02  4.2904677740E-01  2.9538905233E-01
</event>
<event>
    12    82  1.000000E+00  1.700535E+02  7.818177E-03  1.159799E-01
      21   -1    0    0  101  102  0.0000000000E+00  0.0000000000E+00  3.4336106870E+02  3.4336106870E+02  0.0000000000E+00 0. 9.
      21   -1    0    0  102  103  0.0000000000E+00  0.0000000000E+00 -1.2024562244E+02  1.2024562244E+02  0.0000000000E+00 0. 9.
       6    2    1    2  101    0  6.2920717132E+01 -7.4092318412E+01  2.2710759989E+02  2.6314508247E+02  9.0657510471E+01 0. 9.
      -6    2    1    2    0  103 -6.2920717132E+01  7.4092318412E+01 -3.9921536346E+00  2.0046160867E+02  1.7527187729E+02 0. 9.
      24    2    3    0    0    0  4.9648281825E+01 -6.8585107557E+01  2.1034167948E+02  2.4054811369E+02  8.0317519937E+01 0. 9.
       5    1    3    0  101    0  1.3272435307E+01 -5.5072108552E+00  1.6765920417E+01  2.2596968775E+01  4.8000000000E+00 0. 9.
     -24    2    4    0    0    0 -1.1053426629E+02  5.0606596930E+01 -4.3967952510E+00  1.4715276408E+02  8.2799471571E+01 0. 9.
      -5    1    4    0    0  103  4.7613549153E+01  2.3485721482E+01  4.0464161643E-01  5.3308844588E+01  4.8000000000E+00 0. 9.
      -3    1    5    0    0  104 -9.0327436219E+00 -5.5162428727E+01  8.9239002903E+01  1.0530115688E+02  5.0000000000E-01 0. 9.
       4    1    5    0  104    0  5.8681025446E+01 -1.3422678830E+01  1.2110267657E+02  1.3524695681E+02  1.5000000000E+00 0. 9.
       1    1    7    0  105    0 -7.0423371025E+01 -1.3139248102E+01 -5.2532497957E+00  7.1831723915E+01  3.3000000000E-01 0. 9.
      -2    1    7    0    0  105 -4.0110895260E+01  6.3745845032E+01  8.5645454464E-01  7.5321040167E+01  3.3000000000E-01 0. 9.
#pdf    21   21  3.5036843745E-01  1.2269961473E-01  1.7005350887E+02  3.7919785594E-02  5.3371553047E-01
</event>
<event>
    12    81  1.000000E+00  1.637750E+02  7.814868E-03  1.166007E-01
       1   -1    0    0  101    0  0.0000000000E+00  0.0000000000E+00  1.1334977808E+02  1.1334977808E+02  0.0000000000E+00 0. 9.
      -1   -1    0    0    0  102  0.0000000000E+00  0.0000000000E+00 -4.3559641004E+02  4.3559641004E+02  0.0000000000E+00 0. 9.
       6    2    1    2  101    0  9.5411080456E+00 -6.1404876878E+01 -3.6246722291E+02  4.0858817753E+02  1.7804555451E+02 0. 9.
      -6    2    1    2    0  102 -9.5411080456E+00  6.1404876878E+01  4.0220590954E+01  1.4035801060E+02  1.1925218470E+02 0. 9.
      24    2    3    0    0    0  2.0241926693E+01 -3.9422703029E+01 -7.1438565242E+01  1.1649496796E+02  8.0645668494E+01 0. 9.
       5    1    3    0  101    0 -1.0700818648E+01 -2.1982173849E+01 -2.9102865767E+02  2.9209320956E+02  4.8000000000E+00 0. 9.
     -24    2    4    0    0    0 -1.4619886989E+01  4.2620403229E+01  6.2329640027E+01  1.1051675565E+02  7.9364534819E+01 0. 9.
      -5    1    4    0    0  102  5.0787789436E+00  1.8784473648E+01 -2.2109049073E+01  2.9841254945E+01  4.8000000000E+00 0. 9.
      -1    1    5    0    0  103  4.0123167842E+01 -1.5628230118E+00 -6.0053527034E+01  7.2241580981E+01  3.3000000000E-01 0. 9.
       2    1    5    0  103    0 -1.9881241149E+01 -3.7859880017E+01 -1.1385038208E+01  4.4253386983E+01  3.3000000000E-01 0. 9.
       3    1    7    0  104    0 -3.7761364587E+01  4.6603665331E+01  2.2127643077E+01  6.3935161420E+01  5.0000000000E-01 0. 9.
      -4    1    7    0    0  104  2.3141477598E+01 -3.9832621012E+00  4.0201996950E+01  4.6581594232E+01  1.5000000000E+00 0. 9.
#pdf     1   -1  1.1566303886E-01  4.4448613269E-01  1.6377497723E+02  3.1551528630E-01  4.7679624915E-02
</event>
<event>
    12    81  1.000000E+00  1.757452E+02  7.821075E-03  1.154420E-01
       1   -1    0    0  101    0  0.0000000000E+00  0.0000000000E+00  8.2698513769E+01  8.2698513769E+01  0.0000000000E+00 0. 9.
      -1   -1    0    0    0  102  0.0000000000E+00  0.0000000000E+00 -3.8628815778E+02  3.8628815778E+02  0.0000000000E+00 0. 9.
       6    2    1    2  101    0 -1.1666251280E+01  9.2394462222E+00 -1.0943908869E+02  2.0738366472E+02  1.7552664036E+02 0. 9.
      -6    2    1    2    0  102  1.1666251280E+01 -9.2394462222E+00 -1.9415055532E+02  2.6160300682E+02  1.7470038999E+02 0. 9.
      24    2    3    0    0    0 -1.9085906290E+01  5.0465042581E+01 -2.1955530964E+01  1.1027025707E+02  9.3629546147E+01 0. 9.
       5    1    3    0  101    0  7.4196550100E+00 -4.1225596359E+01 -8.7483557721E+01  9.7113407659E+01  4.8000000000E+00 0. 9.
     -24    2    4    0    0    0  5.3100602671E+01 -7.3844239974E+00 -1.9739862589E+02  2.1972417512E+02  8.0238967506E+01 0. 9.
      -5    1    4    0    0  102 -4.1434351391E+01 -1.8550222248E+00  3.2480705664E+00  4.1878831706E+01  4.8000000000E+00 0. 9.
     -13    1    5    0    0    0  2.6482450154E+01  2.7741513078E+01 -4.0780614683E+01  5.5981973991E+01  1.0566000000E-01 0. 9.
      14    1    5    0    0    0 -4.5568356444E+01  2.2723529503E+01  1.8825083718E+01  5.4288283074E+01  0.0000000000E+00 0. 9.
       3    1    7    0  103    0  1.2745440472E+01  2.6506743958E+01 -2.2448518755E+01  3.7003239350E+01  5.0000000000E-01 0. 9.
      -4    1    7    0    0  103  4.0355162199E+01 -3.3891167956E+01 -1.7495010713E+02  1.8272093577E+02  1.5000000000E+00 0. 9.
#pdf     1   -1  8.4386238540E-02  3.9417158957E-01  1.7574522086E+02  3.5612179640E-01  6.9047452737E-02
</event>
<event>
    12    81  1.000000E+00  1.949365E+02  7.830212E-03  1.137810E-01
       2   -1    0    0  101    0  0.0000000000E+00  0.0000000000E+00  1.6797750905E+02  1.6797750905E+02  0.0000000000E+00 0. 9.
      -2   -1    0    0    0  102  0.0000000000E+00  0.0000000000E+00 -2.6579160372E+02  2.6579160372E+02  0.0000000000E+00 0. 9.
       6    2    1    2  101    0  5.8439552228E+01 -6.5069922352E+01 -1.3252662994E+02  2.3547091951E+02  1.7387918287E+02 0. 9.
      -6    2    1    2    0  102 -5.8439552228E+01  6.5069922352E+01  3.4712535266E+01  1.9829819326E+02  1.7455067254E+02 0. 9.
      24    2    3    0    0    0  4.8336844664E+01  2.2617735039E+01 -1.0580884107E+02  1.4312336838E+02  8.0254440603E+01 0. 9.
       5    1    3    0  101    0  1.0102707565E+01 -8.7687657390E+01 -2.6717788864E+01  9.2347551134E+01  4.8000000000E+00 0. 9.
     -24    2    4    0    0    0 -5.3091901567E+01 -6.4435858648E+00  6.5881931895E+01  1.1995694926E+02  8.4787799323E+01 0. 9.
      -5    1    4    0    0  102 -5.3476506611E+00  7.1513508217E+01 -3.1169396629E+01  7.8341243999E+01  4.8000000000E+00 0. 9.
      -3    1    5    0    0  103  8.9087562459E-01  3.8545843709E+01 -7.5004838841E+01  8.4335944746E+01  5.0000000000E-01 0. 9.
       4    1    5    0  103    0  4.7445969039E+01 -1.5928108670E+01 -3.0804002232E+01  5.8787423633E+01  1.5000000000E+00 0. 9.
       1    1    7    0  104    0  2.2765291341E+01 -8.4314971015E+00  1.8092051198E+01  3.0278372640E+01  3.3000000000E-01 0. 9.
      -2    1    7    0    0  104 -7.5857192908E+01  1.9879112367E+00  4.7789880697E+01  8.9678576617E+01  3.3000000000E-01 0. 9.
#pdf     2   -2  1.7140562148E-01  2.7121592216E-01  1.9493647637E+02  5.0083243110E-01  3.7339916604E-01
</event>
<event>
    12    81  1.000000E+00  1.832072E+02  7.824739E-03  1.147698E-01
       1   -1    0    0  101    0  0.0000000000E+00  0.0000000000E+00  1.5517233360E+02  1.5517233360E+02  0.0000000000E+00 0. 9.
      -1   -1    0    0    0  102  0.0000000000E+00  0.0000000000E+00 -2.3254977705E+02  2.3254977705E+02  0.0000000000E+00 0. 9.
       6    2    1    2  101    0 -3.4010415205E+01 -2.3889318776E+01  1.1941232689E+01  1.8730422226E+02  1.8224398686E+02 0. 9.
      -6    2    1    2    0  102  3.4010415205E+01  2.3889318776E+01 -8.9318676134E+01  2.0041788839E+02  1.7453393992E+02 0. 9.
      24    2    3    0    0    0 -2.0215997099E+01  2.5078047410E+01 -5.7019330493E+01  1.0147480891E+02  7.7513468461E+01 0. 9.
       5    1    3    0  101    0 -1.3794418106E+01 -4.8967366186E+01  6.8960563181E+01  8.5829413352E+01  4.8000000000E+00 0. 9.
     -24    2    4    0    0    0  8.7098033710E+01 -1.6577327617E+00 -7.1422146209E+01  1.3865808864E+02  8.0846317316E+01 0. 9.
      -5    1    4    0    0  102 -5.3087618505E+01  2.5547051538E+01 -1.7896529925E+01  6.1759799742E+01  4.8000000000E+00 0. 9.
      -1    1    5    0    0  103  2.3811256848E+01  3.1243849265E+01 -2.3284368359E+01  4.5666451357E+01  3.3000000000E-01 0. 9.
       2    1    5    0  103    0 -4.4027253947E+01 -6.1658018550E+00 -3.3734962133E+01  5.5808357553E+01  3.3000000000E-01 0. 9.
      15    1    7    0    0    0  7.6438011745E+01 -2.0778011630E+00 -1.0967328457E+01  7.7269184801E+01  1.7770000000E+00 0. 9.
     -16    1    7    0    0    0  1.0660021964E+01  4.2006840126E-01 -6.0454817752E+01  6.1388903844E+01  0.0000000000E+00 0. 9.
#pdf     1   -1  1.5833911592E-01  2.3729569086E-01  1.8320723610E+02  2.6319300665E-01  1.8084031256E-01
</event>
<event>
    12    81  1.000000E+00  2.081029E+02  7.835985E-03  1.127578E-01
       2   -1    0    0  101    0  0.0000000000E+00  0.0000000000E+00  2.1935779807E+02  2.1935779807E+02  0.0000000000E+00 0. 9.
      -2   -1    0    0    0  102  0.0000000000E+00  0.0000000000E+00 -2.1363621933E+02  2.1363621933E+02  0.0000000000E+00 0. 9.
       6    2    1    2  101    0 -1.0479199773E+02 -3.5827021437E+01 -5.6786418475E+01  2.1513653860E+02  1.7548246256E+02 0. 9.
      -6    2    1    2    0  102  1.0479199773E+02  3.5827021437E+01  6.2507997210E+01  2.1785747880E+02  1.7688892871E+02 0. 9.
      24    2    3    0    0    0 -2.3141865139E+01 -6.0031852700E+01 -7.5477265442E+01  1.2781525959E+02  8.0626011458E+01 0. 9.
       5    1    3    0  101    0 -8.1650132592E+01  2.4204831264E+01  1.8690846968E+01  8.7321279017E+01  4.8000000000E+00 0. 9.
     -24    2    4    0    0    0  2.7248796706E+01 -1.2921793364E+01 -2.7443564089E+01  8.9390680171E+01  7.9549197518E+01 0. 9.
      -5    1    4    0    0  102  7.7543201025E+01  4.8748814801E+01  8.9951561299E+01  1.2846679863E+02  4.8000000000E+00 0. 9.
      -3    1    5    0    0  103 -2.5010204955E+01 -7.6612147263E+01 -7.6382722826E+01  1.1103828982E+02  5.0000000000E-01 0. 9.
       4    1    5    0  103    0  1.8683398152E+00  1.6580294562E+01  9.0545738362E-01  1.6776969765E+01  1.5000000000E+00 0. 9.
       3    1    7    0  104    0  5.2923129098E+01 -2.0971599253E+01 -2.5596254080E+01  6.2418617348E+01  5.0000000000E-01 0. 9.
      -2    1    7    0    0  104 -2.5674332392E+01  8.0498058883E+00 -1.8473100095E+00  2.6972062823E+01  3.3000000000E-01 0. 9.
#pdf     2   -2  2.2383448783E-01  2.1799614218E-01  2.0810293640E+02  4.3611401202E-01  4.4373747235E-01
</event>
<event>
    12    81  1.000000E+00  3.221571E+02  7.874807E-03  1.063627E-01
       2   -1    0    0  101    0  0.0000000000E+00  0.0000000000E+00  3.3706862160E+02  3.3706862160E+02  0.0000000000E+00 0. 9.
      -2   -1    0    0    0  102  0.0000000000E+00  0.0000000000E+00 -3.0931104786E+02  3.0931104786E+02  0.0000000000E+00 0. 9.
       6    2    1    2  101    0 -2.6557494448E+02 -5.0891825633E+01 -7.9297908116E+00  3.2185123076E+02  1.7437116765E+02 0. 9.
      -6    2    1    2    0  102  2.6557494448E+02  5.0891825633E+01  3.5687364548E+01  3.2452843870E+02  1.7585531122E+02 0. 9.
      24    2    3    0    0    0 -2.9365032945E+01  3.3747301892E-01  3.6328773494E+00  7.9825821676E+01  7.4138687340E+01 0. 9.
       5    1    3    0  101    0 -2.3620991154E+02 -5.1229298652E+01 -1.1562668161E+01  2.4202540909E+02  4.8000000000E+00 0. 9.
     -24    2    4    0    0    0  1.3281681650E+02  3.5952396932E+00 -4.5297079931E+01  1.6191476205E+02  8.0692826351E+01 0. 9.
      -5    1    4    0    0  102  1.3275812798E+02  4.7296585940E+01  8.0984444479E+01  1.6261367665E+02  4.8000000000E+00 0. 9.
      -3    1    5    0    0  103 -4.4091107987E+01 -2.4757932362E+01  1.1117953140E+00  5.0581292067E+01  5.0000000000E-01 0. 9.
       4    1    5    0  103    0  1.4726075042E+01  2.5095405381E+01  2.5210820354E+00  2.9244529609E+01  1.5000000000E+00 0. 9.
      11    1    7    0    0    0  1.2587638915E+02 -1.0272647958E+01 -1.4104593359E+01  1.2708002280E+02  5.1000000000E-04 0. 9.
     -12    1    7    0    0    0  6.9404273533E+00  1.3867887651E+01 -3.1192486573E+01  3.4834739246E+01  0.0000000000E+00 0. 9.
#pdf     2   -2  3.4394757306E-01  3.1562351823E-01  3.2215714543E+02  2.6017923937E-01  2.9737642158E-01
</event>
<event>
    12    81  1.000000E+00  2.039217E+02  7.834192E-03  1.130736E-01
       2   -1    0    0  101    0  0.0000000000E+00  0.0000000000E+00  5.4114233738E+02  5.4114233738E+02  0.0000000000E+00 0. 9.
      -2   -1    0    0    0  102  0.0000000000E+00  0.0000000000E+00 -2.0809901074E+02  2.0809901074E+02  0.0000000000E+00 0. 9.
       6    2    1    2  101    0 -1.4373499410E+01 -1.0808713673E+02 -1.3086596613E+02  2.4266502225E+02  1.7283224618E+02 0. 9.
      -6    2    1    2    0  102  1.4373499410E+01  1.0808713673E+02  4.6390929277E+02  5.0657632587E+02  1.7180895029E+02 0. 9.
      24    2    3    0    0    0 -4.9610469819E+01 -1.1233923128E+02 -5.1268438414E+01  1.5538082660E+02  8.0208770701E+01 0. 9.
       5    1    3    0  101    0  3.5236970410E+01  4.2520945472E+00 -7.9597527714E+01  8.7284195648E+01  4.8000000000E+00 0. 9.
     -24    2    4    0    0    0  6.8750144202E+01  2.9433572448E+01  2.0232365287E+02  2.2802060491E+02  7.3929819701E+01 0. 9.
      -5    1    4    0    0  102 -5.4376644793E+01  7.8653564284E+01  2.6158563991E+02  2.7855572096E+02  4.8000000000E+00 0. 9.
      -1    1    5    0    0  103 -4.2288357748E+00 -1.1636171768E+01  2.0289291390E+01  2.3770733909E+01  3.3000000000E-01 0. 9.
       2    1    5    0  103    0 -4.5381634045E+01 -1.0070305951E+02 -7.1557729805E+01  1.3161009269E+02  3.3000000000E-01 0. 9.
      15    1    7    0    0    0  1.3435527865E+01 -1.8893756286E+01  9.6110917884E+01  9.8883536047E+01  1.7770000000E+00 0. 9.
     -16    1    7    0    0    0  5.5314616337E+01  4.8327328734E+01  1.0621273498E+02  1.2913706887E+02  0.0000000000E+00 0. 9.
#pdf     2   -2  5.5218605855E-01  2.1234592932E-01  2.0392174227E+02  7.3167565617E-02  4.5159359701E-01
</event>
<event>
    12    81  1.000000E+00  1.907935E+02  7.828316E-03  1.141214E-01
       2   -1    0    0  101    0  0.0000000000E+00  0.0000000000E+00  2.2505706984E+02  2.2505706984E+02  0.0000000000E+00 0. 9.
      -2   -1    0    0    0  102  0.0000000000E+00  0.0000000000E+00 -1.8773283192E+02  1.8773283192E+02  0.0000000000E+00 0. 9.
       6    2    1    2  101    0 -6.6252694014E+01 -3.6630567294E+01 -5.8200260477E+01  1.9868906277E+02  1.7423792762E+02 0. 9.
      -6    2    1    2    0  102  6.6252694014E+01  3.6630567294E+01  9.5524498398E+01  2.1410083899E+02  1.7601994642E+02 0. 9.
      24    2    3    0    0    0 -6.3332053937E+01 -5.8061212871E+01 -9.4722575310E+01  1.5597229570E+02  8.9291305598E+01 0. 9.
       5    1    3    0  101    0 -2.9206400771E+00  2.1430645577E+01  3.6522314833E+01  4.2716767072E+01  4.8000000000E+00 0. 9.
     -24    2    4    0    0    0  7.8910638706E+00  7.0323875752E+01  9.9821446342E+01  1.4640429056E+02  8.0387677880E+01 0. 9.
      -5    1    4    0    0  102  5.8361630143E+01 -3.3693308458E+01 -4.2969479444E+00  6.7696548431E+01  4.8000000000E+00 0. 9.
      -1    1    5    0    0  103 -5.6131812485E+01  8.6667368997E+00 -4.3766588418E+01  7.1704364324E+01  3.3000000000E-01 0. 9.
       2    1    5    0  103    0 -7.2002414520E+00 -6.6727949771E+01 -5.0955986892E+01  8.4267931372E+01  3.3000000000E-01 0. 9.
      11    1    7    0    0    0  3.6434864265E+01  5.5956776283E+01  3.8042012149E+01  7.6849559756E+01  5.1000000000E-04 0. 9.
     -12    1    7    0    0    0 -2.8543800395E+01  1.4367099469E+01  6.1779434193E+01  6.9554730805E+01  0.0000000000E+00 0. 9.
#pdf     2   -2  2.2965007127E-01  1.9156411420E-01  1.9079349151E+02  4.3103696129E-01  4.7896381869E-01
</event>
<event>
    12    81  1.000000E+00  1.970917E+02  7.831183E-03  1.136076E-01
       1   -1    0    0  101    0  0.0000000000E+00  0.0000000000E+00  2.6919448965E+02  2.6919448965E+02  0.0000000000E+00 0. 9.
      -1   -1    0    0    0  102  0.0000000000E+00  0.0000000000E+00 -1.5239189151E+02  1.5239189151E+02  0.0000000000E+00 0. 9.
       6    2    1    2  101    0 -6.9826945396E+01  5.8286941916E+01  9.8163922130E+00  1.9728068269E+02  1.7478597285E+02 0. 9.
      -6    2    1    2    0  102  6.9826945396E+01 -5.8286941916E+01  1.0698620592E+02  2.2430569847E+02  1.7491091506E+02 0. 9.
      24    2    3    0    0    0 -8.5840502251E+01 -1.5751830445E+01  2.3701775293E+01  1.2011840124E+02  7.9056588436E+01 0. 9.
       5    1    3    0  101    0  1.6013556854E+01  7.4038772361E+01 -1.3885383080E+01  7.7162281453E+01  4.8000000000E+00 0. 9.
     -24    2    4    0    0    0  2.1526390409E-01 -6.9099748574E+01  1.1274517875E+02  1.5346144142E+02  7.7872441088E+01 0. 9.
      -5    1    4    0    0  102  6.9611681492E+01  1.0812806658E+01 -5.7589728269E+00  7.0844257043E+01  4.8000000000E+00 0. 9.
      -3    1    5    0    0  103 -1.7528515264E+01  1.8095636600E+01  3.4902179504E+01  4.3047799542E+01  5.0000000000E-01 0. 9.
       4    1    5    0  103    0 -6.8311986987E+01 -3.3847467045E+01 -1.1200404210E+01  7.7070601697E+01  1.5000000000E+00 0. 9.
       1    1    7    0  104    0 -3.6610487772E+00  8.2961847311E+00  5.7696153687E+01  5.8405350864E+01  3.3000000000E-01 0. 9.
      -2    1    7    0    0  104  3.8763126813E+00 -7.7395933305E+01  5.5049025063E+01  9.5056090560E+01  3.3000000000E-01 0. 9.
#pdf     1   -1  2.7468825474E-01  1.5550193011E-01  1.9709173539E+02  1.4653647898E-01  2.6527333557E-01
</event>
<event>
    12    81  1.000000E+00  1.834337E+02  7.824847E-03  1.147499E-01
       2   -1    0    0  101    0  0.0000000000E+00  0.0000000000E+00  5.2424086334E+02  5.2424086334E+02  0.0000000000E+00 0. 9.
      -2   -1    0    0    0  102  0.0000000000E+00  0.0000000000E+00 -6.4655172094E+01  6.4655172094E+01  0.0000000000E+00 0. 9.
       6    2    1    2  101    0  4.2277565470E+01  3.7958834973E+01  2.0538582005E+02  2.7577291584E+02  1.7504028204E+02 0. 9.
      -6    2    1    2    0  102 -4.2277565470E+01 -3.7958834973E+01  2.5419987120E+02  3.1312311960E+02  1.7378218498E+02 0. 9.
      24    2    3    0    0    0 -3.1367116111E+01  4.6576692984E+01  1.6357949082E+02  1.9051673855E+02  7.9906780356E+01 0. 9.
       5    1    3    0  101    0  7.3644681582E+01 -8.6178580110E+00  4.1806329228E+01  8.5256177286E+01  4.8000000000E+00 0. 9.
     -24    2    4    0    0    0  5.0645633137E+00  3.4468913472E+00  2.3274359551E+02  2.4649637500E+02  8.0952768800E+01 0. 9.
      -5    1    4    0    0  102 -4.7342128784E+01 -4.1405726320E+01  2.1456275691E+01  6.6626744604E+01  4.8000000000E+00 0. 9.
      -1    1    5    0    0  103 -1.2501044389E+01 -2.1085096650E+01  6.5015024867E+01  6.9483233733E+01  3.3000000000E-01 0. 9.
       2    1    5    0  103    0 -1.8866071722E+01  6.7661789634E+01  9.8564465957E+01  1.2103350482E+02  3.3000000000E-01 0. 9.
       3    1    7    0  104    0 -7.1181762129E+00  3.3181174173E+01  4.6917294465E+01  5.7906314612E+01  5.0000000000E-01 0. 9.
      -4    1    7    0    0  104  1.2182739527E+01 -2.9734282825E+01  1.8582630104E+02  1.8859006038E+02  1.5000000000E+00 0. 9.
#pdf     2   -2  5.3493965647E-01  6.5974665402E-02  1.8343374763E+02  8.5411572745E-02  5.7363266308E-01
</event>
<event>
    12    81  1.000000E+00  2.111550E+02  7.837273E-03  1.125324E-01
       1   -1    0    0  101    0  0.0000000000E+00  0.0000000000E+00  2.4453152881E+02  2.4453152881E+02  0.0000000000E+00 0. 9.
      -1   -1    0    0    0  102  0.0000000000E+00  0.0000000000E+00 -1.9424106521E+02  1.9424106521E+02  0.0000000000E+00 0. 9.
       6    2    1    2  101    0 -6.9641104125E+01  9.5668718304E+01  7.9469787475E+01  2.2567242365E+02  1.7495773384E+02 0. 9.
      -6    2    1    2    0  102  6.9641104125E+01 -9.5668718304E+01 -2.9179323874E+01  2.1310017037E+02  1.7480807368E+02 0. 9.
      24    2    3    0    0    0 -6.3848090874E+01  5.1474215614E+01  1.1896854968E+02  1.6592373926E+02  8.1553650176E+01 0. 9.
       5    1    3    0  101    0 -5.7930132504E+00  4.4194502690E+01 -3.9498762203E+01  5.9748684388E+01  4.8000000000E+00 0. 9.
     -24    2    4    0    0    0  4.7783758451E+01 -1.7370399418E+01  4.1364015311E+01  1.0536079500E+02  8.2491799674E+01 0. 9.
      -5    1    4    0    0  102  2.1857345674E+01 -7.8298318886E+01 -7.0543339185E+01  1.0773937536E+02  4.8000000000E+00 0. 9.
      -3    1    5    0    0  103 -4.9887088144E+01 -8.8119925179E+00  7.2904147249E+01  8.8778586730E+01  5.0000000000E-01 0. 9.
       2    1    5    0  103    0 -1.3961002730E+01  6.0286208132E+01  4.6064402429E+01  7.7145152532E+01  3.3000000000E-01 0. 9.
       3    1    7    0  104    0  5.2119652235E+01 -4.3704929401E+01  1.9316432451E+01  7.0710349778E+01  5.0000000000E-01 0. 9.
      -4    1    7    0    0  104 -4.3358937840E+00  2.6334529984E+01  2.2047582861E+01  3.4650445226E+01  1.5000000000E+00 0. 9.
#pdf     1   -1  2.4952196817E-01  1.9820516858E-01  2.1115497312E+02  1.6736896010E-01  2.1741393199E-01
</event>
<event>
    12    81  1.000000E+00  2.033746E+02  7.833954E-03  1.131155E-01
       1   -1    0    0  101    0  0.0000000000E+00  0.0000000000E+00  1.8383039921E+02  1.8383039921E+02  0.0000000000E+00 0. 9.
      -1   -1    0    0    0  102  0.0000000000E+00  0.0000000000E+00 -2.3700206395E+02  2.3700206395E+02  0.0000000000E+00 0. 9.
       6    2    1    2  101    0  9.0155845146E-01  1.0372653821E+02  2.0762358620E+01  2.0450885238E+02  1.7502224895E+02 0. 9.
      -6    2    1    2    0  102 -9.0155845146E-01 -1.0372653821E+02 -7.3934023367E+01  2.1632361079E+02  1.7484180632E+02 0. 9.
      24    2    3    0    0    0 -4.6051330411E+01  5.0238979303E+01 -3.6363750746E+01  1.1311998488E+02  8.2638541479E+01 0. 9.
       5    1    3    0  101    0  4.6952888863E+01  5.3487558906E+01  5.7126109366E+01  9.1388867493E+01  4.8000000000E+00 0. 9.
     -24    2    4    0    0    0  2.9472756075E+01 -1.2593467118E+02 -9.0060323107E+01  1.7510592409E+02  7.6308833693E+01 0. 9.
      -5    1    4    0    0  102 -3.0374314526E+01  2.2208132968E+01  1.6126299740E+01  4.1217686691E+01  4.8000000000E+00 0. 9.
      -1    1    5    0    0  103 -4.6866658848E+01  7.6549123382E+00  1.1690247655E+01  4.8906565865E+01  3.3000000000E-01 0. 9.
       2    1    5    0  103    0  8.1532843647E-01  4.2584066965E+01 -4.8053998401E+01  6.4213419019E+01  3.3000000000E-01 0. 9.
      15    1    7    0    0    0  2.0507869223E+01 -1.3236515813E+01  7.6894171182E+00  2.5652736999E+01  1.7770000000E+00 0. 9.
     -16    1    7    0    0    0  8.9648868519E+00 -1.1269815536E+02 -9.7749740225E+01  1.4945318710E+02  0.0000000000E+00 0. 9.
#pdf     1   -1  1.8758204001E-01  2.4183884077E-01  2.0337460502E+02  2.2924101824E-01  1.7497139098E-01
</event>
<event>
    12    81  1.000000E+00  1.748024E+02  7.820601E-03  1.155296E-01
       2   -1    0    0  101    0  0.0000000000E+00  0.0000000000E+00  8.2686960177E+01  8.2686960177E+01  0.0000000000E+00 0. 9.
      -2   -1    0    0    0  102  0.0000000000E+00  0.0000000000E+00 -3.6506918087E+02  3.6506918087E+02  0.0000000000E+00 0. 9.
       6    2    1    2  101    0 -8.4583196072E+01 -5.1403660502E+01 -9.1998646157E+01  1.7106395999E+02  1.0489267916E+02 0. 9.
      -6    2    1    2    0  102  8.4583196072E+01  5.1403660502E+01 -1.9038357453E+02  2.7669218106E+02  1.7468830595E+02 0. 9.
      24    2    3    0    0    0 -8.6454362610E+01 -2.6662237603E+01 -7.7683018323E+01  1.4201888344E+02  7.7132873605E+01 0. 9.
       5    1    3    0  101    0  1.8711665379E+00 -2.4741422900E+01 -1.4315627834E+01  2.9045076546E+01  4.8000000000E+00 0. 9.
     -24    2    4    0    0    0  1.0966315090E+02 -8.1955589020E+00 -1.2813331702E+02  1.8680777947E+02  7.9911361452E+01 0. 9.
      -5    1    4    0    0  102 -2.5079954828E+01  5.9599219404E+01 -6.2250257518E+01  8.9884401588E+01  4.8000000000E+00 0. 9.
     -13    1    5    0    0    0 -9.5854485945E+01 -3.0314774581E+01 -8.3224334148E+01  1.3051194961E+02  1.0566000000E-01 0. 9.
      14    1    5    0    0    0  9.4001233354E+00  3.6525369785E+00  5.5413158242E+00  1.1506933830E+01  0.0000000000E+00 0. 9.
       3    1    7    0  103    0  5.5659140553E+01  1.9037017248E+01 -1.8636326952E+01  6.1708270394E+01  5.0000000000E-01 0. 9.
      -4    1    7    0    0  103  5.4004010347E+01 -2.7232576150E+01 -1.0949699006E+02  1.2509950907E+02  1.5000000000E+00 0. 9.
#pdf     2   -2  8.4374449161E-02  3.7251957231E-01  1.7480243865E+02  5.6573601080E-01  2.4072933446E-01
</event>
<event>
    12    81  1.000000E+00  2.043907E+02  7.834395E-03  1.130378E-01
       2   -1    0    0  101    0  0.0000000000E+00  0.0000000000E+00  1.5587183267E+02  1.5587183267E+02  0.0000000000E+00 0. 9.
      -2   -1    0    0    0  102  0.0000000000E+00  0.0000000000E+00 -2.8301640422E+02  2.8301640422E+02  0.0000000000E+00 0. 9.
       6    2    1    2  101    0  3.9469479528E-01  9.5186723490E+01 -1.1529015484E+02  2.3777424999E+02  1.8488944276E+02 0. 9.
      -6    2    1    2    0  102 -3.9469479528E-01 -9.5186723490E+01 -1.1854416701E+01  2.0111398690E+02  1.7676436410E+02 0. 9.
      24    2    3    0    0    0  1.2789863889E+01  4.5630524877E+01  1.9056847747E+01  9.3963213759E+01  7.8868223480E+01 0. 9.
       5    1    3    0  101    0 -1.2395169094E+01  4.9556198613E+01 -1.3434700259E+02  1.4381103623E+02  4.8000000000E+00 0. 9.
     -24    2    4    0    0    0 -2.9638986868E+01 -1.2895866911E+02 -1.7694276722E+01  1.5580486094E+02  8.0332181484E+01 0. 9.
      -5    1    4    0    0  102  2.9244292073E+01  3.3771945622E+01  5.8398600214E+00  4.5309125957E+01  4.8000000000E+00 0. 9.
      -3    1    5    0    0  103 -1.7665022221E+01  2.6803067949E+01 -2.2413400719E+01  3.9154412183E+01  5.0000000000E-01 0. 9.
       4    1    5    0  103    0  3.0454886110E+01  1.8827456928E+01  4.1470248466E+01  5.4808801576E+01  1.5000000000E+00 0. 9.
       1    1    7    0  104    0 -5.7406995469E+01 -8.2510367000E+01 -1.4909565660E+01  1.0161657266E+02  3.3000000000E-01 0. 9.
      -2    1    7    0    0  104  2.7768008601E+01 -4.6448302112E+01 -2.7847110619E+00  5.4188288277E+01  3.3000000000E-01 0. 9.
#pdf     2   -2  1.5905289048E-01  2.8879224920E-01  2.0439065865E+02  5.1214715986E-01  3.4741837257E-01
</event>
<event>
    12    81  1.000000E+00  2.042780E+02  7.834346E-03  1.130464E-01
       2   -1    0    0  101    0  0.0000000000E+00  0.0000000000E+00  1.8158941813E+02  1.8158941813E+02  0.0000000000E+00 0. 9.
      -2   -1    0    0    0  102  0.0000000000E+00  0.0000000000E+00 -2.3060409089E+02  2.3060409089E+02  0.0000000000E+00 0. 9.
       6    2    1    2  101    0 -9.1444315918E+01  2.2421652699E+01 -3.7551724358E+01  2.1103515818E+02  1.8509703553E+02 0. 9.
      -6    2    1    2    0  102  9.1444315918E+01 -2.2421652699E+01 -1.1462948395E+01  2.0115835085E+02  1.7739360052E+02 0. 9.
      24    2    3    0    0    0  9.9633681835E+00  5.7331572816E+01 -2.9446721363E+01  1.0337387455E+02  8.0205178102E+01 0. 9.
       5    1    3    0  101    0 -1.0140768410E+02 -3.4909920117E+01 -8.1050029953E+00  1.0766128362E+02  4.8000000000E+00 0. 9.
     -24    2    4    0    0    0 -2.3723738341E+01 -1.7452984784E+01  4.3887553422E+00  8.4699410039E+01  7.9292537156E+01 0. 9.
      -5    1    4    0    0  102  1.1516805426E+02 -4.9686679154E+00 -1.5851703738E+01  1.1645894081E+02  4.8000000000E+00 0. 9.
      -1    1    5    0    0  103  2.5130670707E+01  6.6231960384E+01 -2.1558062477E+00  7.0872982067E+01  3.3000000000E-01 0. 9.
       4    1    5    0  103    0 -1.5167302524E+01 -8.9003875677E+00 -2.7290915115E+01  3.2500892488E+01  1.5000000000E+00 0. 9.
       3    1    7    0  104    0  5.4309649371E+00  2.8311498440E+01 -5.9528913528E+00  2.9440163714E+01  5.0000000000E-01 0. 9.
      -4    1    7    0    0  104 -2.9154703278E+01 -4.5764483224E+01  1.0341646695E+01  5.5259246324E+01  1.5000000000E+00 0. 9.
#pdf     2   -2  1.8529532463E-01  2.3531029682E-01  2.0427798329E+02  4.8433236002E-01  4.2138986460E-01
</event>
<event>
    12    81  1.000000E+00  2.029247E+02  7.833759E-03  1.131501E-01
       2   -1    0    0  101    0  0.0000000000E+00  0.0000000000E+00  2.9573014981E+02  2.9573014981E+02  0.0000000000E+00 0. 9.
      -2   -1    0    0    0  102  0.0000000000E+00  0.0000000000E+00 -1.7222364022E+02  1.7222364022E+02  0.0000000000E+00 0. 9.
       6    2    1    2  101    0  7.2790293006E+00 -9.6073465295E+01 -4.1535140220E+01  2.0372445741E+02  1.7462929787E+02 0. 9.
      -6    2    1    2    0  102 -7.2790293006E+00  9.6073465295E+01  1.6504164981E+02  2.6422933262E+02  1.8246999492E+02 0. 9.
      24    2    3    0    0    0 -1.7322513375E+01 -8.7703883643E+01  3.3254975204E+01  1.2440304061E+02  7.9863523967E+01 0. 9.
       5    1    3    0  101    0  2.4601542676E+01 -8.3695816520E+00 -7.4790115423E+01  7.9321416806E+01  4.8000000000E+00 0. 9.
     -24    2    4    0    0    0 -7.3462323923E+01  5.2048962364E+01  7.1378077589E+01  1.4128914348E+02  8.2231287147E+01 0. 9.
      -5    1    4    0    0  102  6.6183294623E+01  4.4024502931E+01  9.3663572216E+01  1.2294018914E+02  4.8000000000E+00 0. 9.
     -13    1    5    0    0    0 -5.2240342632E+00 -8.8872397534E+01  3.1406767729E-02  8.9025871115E+01  1.0566000000E-01 0. 9.
      14    1    5    0    0    0 -1.2098479112E+01  1.1685138908E+00  3.3223568436E+01  3.5377169490E+01  0.0000000000E+00 0. 9.
       3    1    7    0  103    0  8.6673514929E+00  2.1969060130E-01 -1.0941654312E+01  1.3969289350E+01  5.0000000000E-01 0. 9.
      -4    1    7    0    0  103 -8.2129675416E+01  5.1829271763E+01  8.2319731901E+01  1.2731985413E+02  1.5000000000E+00 0. 9.
#pdf     2   -2  3.0176545899E-01  1.7573840839E-01  2.0292471599E+02  3.2963502048E-01  4.9515565423E-01
</event>
<event>
    12    81  1.000000E+00  2.266426E+02  7.843537E-03  1.114492E-01
       2   -1    0    0  101    0  0.0000000000E+00  0.0000000000E+00  2.8930181597E+02  2.8930181597E+02  0.0000000000E+00 0. 9.
      -2   -1    0    0    0  102  0.0000000000E+00  0.0000000000E+00 -2.7288508943E+02  2.7288508943E+02  0.0000000000E+00 0. 9.
       6    2    1    2  101    0 -5.7441118862E+01  1.2098043077E+02  1.7427981809E+02  2.8043094301E+02  1.7416174103E+02 0. 9.
      -6    2    1    2    0  102  5.7441118862E+01 -1.2098043077E+02 -1.5786309155E+02  2.8175596238E+02  1.9112801966E+02 0. 9.
      24    2    3    0    0    0  1.7704892453E+01  1.1601666324E+02  1.0266171874E+02  1.7639367008E+02  8.2474050354E+01 0. 9.
       5    1    3    0  101    0 -7.5146011315E+01  4.9637675259E+00  7.1618099352E+01  1.0403727293E+02  4.8000000000E+00 0. 9.
     -24    2    4    0    0    0  9.5664803765E+00 -1.5265527333E+02 -9.8801753871E+01  1.9925409410E+02  8.0902765252E+01 0. 9.
      -5    1    4    0    0  102  4.7874638486E+01  3.1674842562E+01 -5.9061337682E+01  8.2501868283E+01  4.8000000000E+00 0. 9.
      -1    1    5    0    0  103 -2.8030026236E+00  6.3781207240E+01  5.3591175121E+00  6.4068153253E+01  3.3000000000E-01 0. 9.
       2    1    5    0  103    0  2.0507895077E+01  5.2235456003E+01  9.7302601226E+01  1.1232551682E+02  3.3000000000E-01 0. 9.
       3    1    7    0  104    0 -1.0969136198E+01 -1.4203544294E+01 -4.6469251864E+01  4.9816703908E+01  5.0000000000E-01 0. 9.
      -4    1    7    0    0  104  2.0535616575E+01 -1.3845172904E+02 -5.2332502007E+01  1.4943739019E+02  1.5000000000E+00 0. 9.
#pdf     2   -2  2.9520593466E-01  2.7845417289E-01  2.2664258808E+02  3.3537896819E-01  3.5868248219E-01
</event>
<event>
    12    81  1.000000E+00  1.854932E+02  7.825832E-03  1.145708E-01
       2   -1    0    0  101    0  0.0000000000E+00  0.0000000000E+00  3.4488202868E+02  3.4488202868E+02  0.0000000000E+00 0. 9.
      -2   -1    0    0    0  102  0.0000000000E+00  0.0000000000E+00 -1.0058683286E+02  1.0058683286E+02  0.0000000000E+00 0. 9.
       6    2    1    2  101    0  3.2241652592E+01  5.4554193933E+01  1.4228444181E+02  2.3380874055E+02  1.7437310727E+02 0. 9.
      -6    2    1    2    0  102 -3.2241652592E+01 -5.4554193933E+01  1.0201075401E+02  2.1166012098E+02  1.7429322604E+02 0. 9.
      24    2    3    0    0    0  9.1644047328E+01  3.6053423405E+01  1.1158174058E+02  1.6426293641E+02  6.9522274837E+01 0. 9.
       5    1    3    0  101    0 -5.9402394737E+01  1.8500770527E+01  3.0702701234E+01  6.9545804141E+01  4.8000000000E+00 0. 9.
     -24    2    4    0    0    0 -6.5077728737E+01  1.8046744033E+01  6.6967762647E+01  1.2448125122E+02  8.0312545241E+01 0. 9.
      -5    1    4    0    0  102  3.2836076145E+01 -7.2600937966E+01  3.5042991360E+01  8.7178869765E+01  4.8000000000E+00 0. 9.
      -1    1    5    0    0  103  3.3073060102E+00  2.0344698105E+01 -5.8880337830E-01  2.0622817544E+01  3.3000000000E-01 0. 9.
       2    1    5    0  103    0  8.8336741318E+01  1.5708725301E+01  1.1217054396E+02  1.4364011887E+02  3.3000000000E-01 0. 9.
       3    1    7    0  104    0  4.8513552158E+00 -1.9668277383E+01  3.1511359760E+01  3.7464550933E+01  5.0000000000E-01 0. 9.
      -4    1    7    0    0  104 -6.9929083953E+01  3.7715021416E+01  3.5456402887E+01  8.7016700285E+01  1.5000000000E+00 0. 9.
#pdf     2   -2  3.5192043743E-01  1.0263962537E-01  1.8549323122E+02  2.6503424168E-01  5.5630570321E-01
</event>
<event>
    12    81  1.000000E+00  2.062726E+02  7.835205E-03  1.128951E-01
       2   -1    0    0  101    0  0.0000000000E+00  0.0000000000E+00  2.9522511786E+02  2.9522511786E+02  0.0000000000E+00 0. 9.
      -2   -1    0    0    0  102  0.0000000000E+00  0.0000000000E+00 -1.6629393058E+02  1.6629393058E+02  0.0000000000E+00 0. 9.
       6    2    1    2  101    0  2.6817777790E+01  1.0556182327E+02 -1.9783260046E+01  2.0726279772E+02  1.7522556378E+02 0. 9.
      -6    2    1    2    0  102 -2.6817777790E+01 -1.0556182327E+02  1.4871444732E+02  2.5425625072E+02  1.7512213582E+02 0. 9.
      24    2    3    0    0    0  4.8131052006E+01  1.3744490418E+02 -3.5690298614E+00  1.6534946133E+02  7.8230470637E+01 0. 9.
       5    1    3    0  101    0 -2.1313274217E+01 -3.1883080913E+01 -1.6214230185E+01  4.1913336384E+01  4.8000000000E+00 0. 9.
     -24    2    4    0    0    0 -1.4112961007E+01 -1.2058533333E+02  5.1065736913E+01  1.5452947966E+02  8.0818638400E+01 0. 9.
      -5    1    4    0    0  102 -1.2704816783E+01  1.5023510065E+01  9.7648710405E+01  9.9726771069E+01  4.8000000000E+00 0. 9.
      -1    1    5    0    0  103 -4.7271379240E+00 -8.2234191340E+00  3.7723359197E+00  1.0213220525E+01  3.3000000000E-01 0. 9.
       2    1    5    0  103    0  5.2858189930E+01  1.4566832331E+02 -7.3413657811E+00  1.5513624081E+02  3.3000000000E-01 0. 9.
      15    1    7    0    0    0  2.3906518302E+01 -9.2350105369E+01  4.8680630955E+01  1.0711220817E+02  1.7770000000E+00 0. 9.
     -16    1    7    0    0    0 -3.8019479309E+01 -2.8235227964E+01  2.3851059580E+00  4.7417271490E+01  0.0000000000E+00 0. 9.
#pdf     2   -2  3.0125012026E-01  1.6968768427E-01  2.0627256741E+02  3.2985079401E-01  5.0117915723E-01
</event>
<event>
    12    81  1.000000E+00  1.858776E+02  7.826014E-03  1.145377E-01
       2   -1    0    0  101    0  0.0000000000E+00  0.0000000000E+00  2.8388614959E+02  2.8388614959E+02  0.0000000000E+00 0. 9.
      -2   -1    0    0    0  102  0.0000000000E+00  0.0000000000E+00 -2.5811262520E+02  2.5811262520E+02  0.0000000000E+00 0. 9.
       6    2    1    2  101    0  2.9707770319E+01 -5.5931384024E+01  2.0990376389E+02  2.8056968292E+02  1.7506823110E+02 0. 9.
      -6    2    1    2    0  102 -2.9707770319E+01  5.5931384024E+01 -1.8413023951E+02  2.6142909188E+02  1.7444298106E+02 0. 9.
      24    2    3    0    0    0  6.0350990029E+00  3.7801838404E+01  8.5581783703E+01  1.2300919576E+02  7.9634283660E+01 0. 9.
       5    1    3    0  101    0  2.3672671317E+01 -9.3733222428E+01  1.2432198019E+02  1.5756048715E+02  4.8000000000E+00 0. 9.
     -24    2    4    0    0    0 -5.9087451099E+01  9.2699340548E+01 -1.5366527928E+02  2.0516007668E+02  7.9957140965E+01 0. 9.
      -5    1    4    0    0  102  2.9379680779E+01 -3.6767956524E+01 -3.0464960230E+01  5.6269015198E+01  4.8000000000E+00 0. 9.
      -1    1    5    0    0  103 -1.6918782387E+01  1.1797997824E+01  8.5878033120E+01  8.8320911582E+01  3.3000000000E-01 0. 9.
       2    1    5    0  103    0  2.2953881389E+01  2.6003840580E+01 -2.9624941701E-01  3.4688284182E+01  3.3000000000E-01 0. 9.
       1    1    7    0  104    0 -2.6364056643E+01 -6.0601309056E+00 -5.7222567171E+01  6.3295495598E+01  3.3000000000E-01 0. 9.
      -2    1    7    0    0  104 -3.2723394456E+01  9.8759471454E+01 -9.6442712106E+01  1.4186458108E+02  3.3000000000E-01 0. 9.
#pdf     2   -2  2.8967974448E-01  2.6338022980E-01  1.8587762352E+02  3.4911476576E-01  3.8579639103E-01
</event>
<event>
    12    81  1.000000E+00  2.364148E+02  7.847277E-03  1.108131E-01
       2   -1    0    0  101    0  0.0000000000E+00  0.0000000000E+00  2.9133670436E+02  2.9133670436E+02  0.0000000000E+00 0. 9.
      -2   -1    0    0    0  102  0.0000000000E+00  0.0000000000E+00 -2.5243447794E+02  2.5243447794E+02  0.0000000000E+00 0. 9.
       6    2    1    2  101    0  1.5997728660E+02 -1.2256325659E+00  1.5262719016E+02  2.8107250449E+02  1.7352941883E+02 0. 9.
      -6    2    1    2    0  102 -1.5997728660E+02  1.2256325659E+00 -1.1372496374E+02  2.6269867781E+02  1.7459379583E+02 0. 9.
      24    2    3    0    0    0  8.9184708995E+01  5.8382362805E+01  4.9121761643E+01  1.4222609334E+02  8.0329954273E+01 0. 9.
       3    1    3    0  101    0  7.0792577606E+01 -5.9607995371E+01  1.0350542852E+02  1.3884641115E+02  5.0000000000E-01 0. 9.
     -24    2    4    0    0    0 -4.0680348354E+01 -3.3735599840E+01  1.6621133165E+00  9.3018788614E+01  7.6529412488E+01 0. 9.
      -5    1    4    0    0  102 -1.1929693825E+02  3.4961232406E+01 -1.1538707706E+02  1.6967988920E+02  4.8000000000E+00 0. 9.
      -3    1    5    0    0  103  8.3958577391E+01  2.2675302630E+01  5.8619582276E+01  1.0487953801E+02  5.0000000000E-01 0. 9.
       4    1    5    0  103    0  5.2261316032E+00  3.5707060175E+01 -9.4978206340E+00  3.7346555326E+01  1.5000000000E+00 0. 9.
       3    1    7    0  104    0 -1.0706145126E+01 -5.3197008539E+01 -1.0433088698E+01  5.5259773803E+01  5.0000000000E-01 0. 9.
      -4    1    7    0    0  104 -2.9974203228E+01  1.9461408699E+01  1.2095202015E+01  3.7759014811E+01  1.5000000000E+00 0. 9.
#pdf     2   -2  2.9728235139E-01  2.5758620198E-01  2.3641480659E+02  3.3124777172E-01  3.8646355459E-01
</event>
<event>
    12    81  1.000000E+00  2.286231E+02  7.844307E-03  1.113175E-01
       2   -1    0    0  101    0  0.0000000000E+00  0.0000000000E+00  2.1531806332E+02  2.1531806332E+02  0.0000000000E+00 0. 9.
      -2   -1    0    0    0  102  0.0000000000E+00  0.0000000000E+00 -3.4579428728E+02  3.4579428728E+02  0.0000000000E+00 0. 9.
       6    2    1    2  101    0  1.9972773298E+01 -1.4615741905E+02 -2.1832767920E+02  3.1589966801E+02  1.7425476156E+02 0. 9.
      -6    2    1    2    0  102 -1.9972773298E+01  1.4615741905E+02  8.7851455243E+01  2.4521268260E+02  1.7507278115E+02 0. 9.
      24    2    3    0    0    0  3.4683619035E+01 -3.5006787676E+01 -1.6876538613E+02  1.9321987044E+02  8.0148201258E+01 0. 9.
       5    1    3    0  101    0 -1.4710845737E+01 -1.1115063137E+02 -4.9562293071E+01  1.2267979757E+02  4.8000000000E+00 0. 9.
     -24    2    4    0    0    0 -8.0135525441E+01  1.0169759954E+02  6.4494035516E+01  1.6669617890E+02  8.2849449322E+01 0. 9.
      -5    1    4    0    0  102  6.0162752143E+01  4.4459819513E+01  2.3357419727E+01  7.8516503697E+01  4.8000000000E+00 0. 9.
     -11    1    5    0    0    0  3.6530128008E+01 -5.7699225027E+01 -1.0262184811E+02  1.2326757291E+02  5.1000000000E-04 0. 9.
      12    1    5    0    0    0 -1.8465089731E+00  2.2692437352E+01 -6.6143538012E+01  6.9952297526E+01  0.0000000000E+00 0. 9.
       1    1    7    0  103    0  1.2847086162E+01  3.2161385173E+01  2.9316516792E+01  4.5375867770E+01  3.3000000000E-01 0. 9.
      -2    1    7    0    0  103 -9.2982611603E+01  6.9536214364E+01  3.5177518724E+01  1.2132031113E+02  3.3000000000E-01 0. 9.
#pdf     2   -2  2.1971230951E-01  3.5285131355E-01  2.2862305905E+02  4.3874510191E-01  2.5798027730E-01
</event>
<event>
    12    81  1.000000E+00  2.186269E+02  7.840349E-03  1.119976E-01
       2   -1    0    0  101    0  0.0000000000E+00  0.0000000000E+00  3.0829098410E+02  3.0829098410E+02  0.0000000000E+00 0. 9.
      -2   -1    0    0    0  102  0.0000000000E+00  0.0000000000E+00 -1.6236037769E+02  1.6236037769E+02  0.0000000000E+00 0. 9.
       6    2    1    2  101    0 -7.4058407609E+01 -1.0487357169E+02  2.2099738888E+01  2.1713786725E+02  1.7371626625E+02 0. 9.
      -6    2    1    2    0  102  7.4058407609E+01  1.0487357169E+02  1.2383086752E+02  2.5351349454E+02  1.8014409340E+02 0. 9.
      24    2    3    0    0    0  2.2664579346E+01 -3.9359635681E+01  3.0633941463E+01  9.9906111185E+01  8.3545967016E+01 0. 9.
       5    1    3    0  101    0 -9.6722986955E+01 -6.5513936013E+01 -8.5342025754E+00  1.1723175607E+02  4.8000000000E+00 0. 9.
     -24    2    4    0    0    0  7.2294412758E+01  3.1046691692E+00  1.0242781828E+02  1.4939264305E+02  8.1182404209E+01 0. 9.
      -5    1    4    0    0  102  1.7639948508E+00  1.0176890252E+02  2.1403049242E+01  1.0412085149E+02  4.8000000000E+00 0. 9.
      -3    1    5    0    0  103 -1.6163389721E+00 -3.0094660255E+01  5.5976257013E+01  6.3575879677E+01  5.0000000000E-01 0. 9.
       4    1    5    0  103    0  2.4280918318E+01 -9.2649754263E+00 -2.5342315550E+01  3.6330231508E+01  1.5000000000E+00 0. 9.
       3    1    7    0  104    0  7.6725855013E+01  2.7365403082E+01  6.3505837779E+01  1.0329067502E+02  5.0000000000E-01 0. 9.
      -4    1    7    0    0  104 -4.4314422548E+00 -2.4260733913E+01  3.8921980500E+01  4.6101968033E+01  1.5000000000E+00 0. 9.
#pdf     2   -2  3.1458263684E-01  1.6567385479E-01  2.1862692321E+02  3.0981260427E-01  5.0386947576E-01
</event>
<event>
    12    81  1.000000E+00  2.128226E+02  7.837968E-03  1.124110E-01
       2   -1    0    0  101    0  0.0000000000E+00  0.0000000000E+00  1.9487414218E+02  1.9487414218E+02  0.0000000000E+00 0. 9.
      -2   -1    0    0    0  102  0.0000000000E+00  0.0000000000E+00 -2.3397942667E+02  2.3397942667E+02  0.0000000000E+00 0. 9.
       6    2    1    2  101    0 -1.1423975002E+02  4.5015608742E+01 -3.7019277158E+01  2.1583766486E+02  1.7360398952E+02 0. 9.
      -6    2    1    2    0  102  1.1423975002E+02 -4.5015608742E+01 -2.0860073376E+00  2.1301590399E+02  1.7405257369E+02 0. 9.
      24    2    3    0    0    0 -9.6447751168E+01 -7.7364337834E-01 -8.0522642915E+01  1.5004409629E+02  8.2015654484E+01 0. 9.
       5    1    3    0  101    0 -1.7791998853E+01  4.5789252120E+01  4.3503365757E+01  6.5793568569E+01  4.8000000000E+00 0. 9.
     -24    2    4    0    0    0  3.5517243147E+01  3.1115710654E+01  3.1284999757E+01  9.8430237362E+01  8.0499058424E+01 0. 9.
      -5    1    4    0    0  102  7.8722506874E+01 -7.6131319396E+01 -3.3371007094E+01  1.1458566663E+02  4.8000000000E+00 0. 9.
      -3    1    5    0    0  103 -6.3226684761E+01  9.9507855218E+00 -1.9320397383E+00  6.4036041226E+01  5.0000000000E-01 0. 9.
       4    1    5    0  103    0 -3.3221066407E+01 -1.0724428900E+01 -7.8590603176E+01  8.6008055065E+01  1.5000000000E+00 0. 9.
       1    1    7    0  104    0  2.2421497049E+01  2.5350131302E+01 -2.3891378420E+01  4.1427763031E+01  3.3000000000E-01 0. 9.
      -2    1    7    0    0  104  1.3095746097E+01  5.7655793521E+00  5.5176378177E+01  5.7002474331E+01  3.3000000000E-01 0. 9.
#pdf     2   -2  1.9885116549E-01  2.3875451701E-01  2.1282257236E+02  4.6718506862E-01  4.1549574485E-01
</event>
<event>
    12    81  1.000000E+00  1.950419E+02  7.830260E-03  1.137725E-01
       2   -1    0    0  101    0  0.0000000000E+00  0.0000000000E+00  6.0599279113E+01  6.0599279113E+01  0.0000000000E+00 0. 9.
      -2   -1    0    0    0  102  0.0000000000E+00  0.0000000000E+00 -6.6201754435E+02  6.6201754435E+02  0.0000000000E+00 0. 9.
       6    2    1    2  101    0  1.0626167220E+01 -1.4400966883E+01 -3.6204190907E+02  4.0236057431E+02  1.7464072995E+02 0. 9.
      -6    2    1    2    0  102 -1.0626167220E+01  1.4400966883E+01 -2.3937635617E+02  3.2025624915E+02  2.1199698572E+02 0. 9.
      24    2    3    0    0    0  6.0981942488E+01 -4.5971691528E+01 -1.9884371162E+02  2.2861044795E+02  8.3016393146E+01 0. 9.
       5    1    3    0  101    0 -5.0355775268E+01  3.1570724645E+01 -1.6319819746E+02  1.7375012636E+02  4.8000000000E+00 0. 9.
     -24    2    4    0    0    0  3.9349713390E+01  1.2879629269E+01 -2.5307214238E+02  2.6819361696E+02  7.8536756590E+01 0. 9.
      -5    1    4    0    0  102 -4.9975880610E+01  1.5213376138E+00  1.3695786214E+01  5.2062632193E+01  4.8000000000E+00 0. 9.
      -1    1    5    0    0  103 -9.3592015351E+00 -4.0345402158E+01 -6.0660574057E+01  7.3451754735E+01  3.3000000000E-01 0. 9.
       2    1    5    0  103    0  7.0341144023E+01 -5.6262893705E+00 -1.3818313756E+02  1.5515869321E+02  3.3000000000E-01 0. 9.
       1    1    7    0  104    0  6.0873783830E+01 -2.8967115242E+00 -1.5487668045E+02  1.6643588418E+02  3.3000000000E-01 0. 9.
      -2    1    7    0    0  104 -2.1524070440E+01  1.5776340794E+01 -9.8195461930E+01  1.0175773278E+02  3.3000000000E-01 0. 9.
#pdf     2   -2  6.1835999095E-02  6.7552810648E-01  1.9504193532E+02  5.7557751853E-01  2.1891138669E-02
</event>
<event>
    12    81  1.000000E+00  1.931892E+02  7.829418E-03  1.139234E-01
       2   -1    0    0  101    0  0.0000000000E+00  0.0000000000E+00  1.9456853531E+02  1.9456853531E+02  0.0000000000E+00 0. 9.
      -2   -1    0    0    0  102  0.0000000000E+00  0.0000000000E+00 -2.4586107733E+02  2.4586107733E+02  0.0000000000E+00 0. 9.
       6    2    1    2  101    0  4.1478306071E+01  7.2329317750E+01 -1.2884520123E+02  2.3184407406E+02  1.7377746896E+02 0. 9.
      -6    2    1    2    0  102 -4.1478306071E+01 -7.2329317750E+01  7.7552659208E+01  2.0858553858E+02  1.7476135693E+02 0. 9.
      24    2    3    0    0    0  5.9893392179E+01  5.9088508806E+01 -1.6028753741E+01  1.1667018274E+02  7.9223357008E+01 0. 9.
       5    1    3    0  101    0 -1.8415086108E+01  1.3240808944E+01 -1.1281644749E+02  1.1517389132E+02  4.8000000000E+00 0. 9.
     -24    2    4    0    0    0  2.9600781573E+01 -8.5215568825E+01  4.5347570507E+01  1.2934855287E+02  8.0850148660E+01 0. 9.
      -5    1    4    0    0  102 -7.1079087644E+01  1.2886251075E+01  3.2205088701E+01  7.9236985716E+01  4.8000000000E+00 0. 9.
     -13    1    5    0    0    0  4.0108140816E+01  3.7863696589E+01  2.9599176513E+01  6.2597483123E+01  1.0566000000E-01 0. 9.
      14    1    5    0    0    0  1.9785251363E+01  2.1224812216E+01 -4.5627930254E+01  5.4072699621E+01  0.0000000000E+00 0. 9.
      13    1    7    0    0    0  4.9274247934E+01 -4.3177122233E+01  1.5515630547E+00  6.5533456384E+01  1.0566000000E-01 0. 9.
     -14    1    7    0    0    0 -1.9673466360E+01 -4.2038446592E+01  4.3796007452E+01  6.3815096484E+01  0.0000000000E+00 0. 9.
#pdf     2   -2  1.9853932175E-01  2.5087865034E-01  1.9318915699E+02  4.7030865803E-01  4.0189167320E-01
</event>
<event>
    12    81  1.000000E+00  1.751650E+02  7.820784E-03  1.154958E-01
       2   -1    0    0  101    0  0.0000000000E+00  0.0000000000E+00  2.0148630554E+02  2.0148630554E+02  0.0000000000E+00 0. 9.
      -2   -1    0    0    0  102  0.0000000000E+00  0.0000000000E+00 -1.9028858183E+02  1.9028858183E+02  0.0000000000E+00 0. 9.
       6    2    1    2  101    0 -4.1683653515E+00 -7.1490983613E+00 -8.1932383610E+01  1.9389775040E+02  1.7554183903E+02 0. 9.
      -6    2    1    2    0  102  4.1683653515E+00  7.1490983613E+00  9.3130107325E+01  1.9787713697E+02  1.7439512484E+02 0. 9.
      24    2    3    0    0    0 -7.0748651061E+01 -2.0278241238E+01 -6.6681921885E+01  1.2417741319E+02  7.4545104103E+01 0. 9.
       5    1    3    0  101    0  6.6580285710E+01  1.3129142877E+01 -1.5250461725E+01  6.9720337210E+01  4.8000000000E+00 0. 9.
     -24    2    4    0    0    0  5.0143355989E+01  3.9771580754E+01  1.7751303984E+01  1.0362783928E+02  7.9545493240E+01 0. 9.
      -5    1    4    0    0  102 -4.5974990637E+01 -3.2622482393E+01  7.5378803341E+01  9.4249297688E+01  4.8000000000E+00 0. 9.
     -11    1    5    0    0    0 -4.3648246033E+01 -1.1936518188E+01  6.4802756122E+00  4.5712622113E+01  5.1000000000E-04 0. 9.
      12    1    5    0    0    0 -2.7100405028E+01 -8.3417230495E+00 -7.3162197497E+01  7.8464791077E+01  0.0000000000E+00 0. 9.
      13    1    7    0    0    0  1.9290396457E+01 -2.3910076991E+01  1.0628522699E+01  3.2508273346E+01  1.0566000000E-01 0. 9.
     -14    1    7    0    0    0  3.0852959532E+01  6.3681657745E+01  7.1227812857E+00  7.1119565932E+01  0.0000000000E+00 0. 9.
#pdf     2   -2  2.0559827096E-01  1.9417202227E-01  1.7516501730E+02  4.6452126170E-01  4.7831518366E-01
</event>
<event>
    12    81  1.000000E+00  2.602207E+02  7.855792E-03  1.093940E-01
       2   -1    0    0  101    0  0.0000000000E+00  0.0000000000E+00  1.2319883228E+02  1.2319883228E+02  0.0000000000E+00 0. 9.
      -2   -1    0    0    0  102  0.0000000000E+00  0.0000000000E+00 -5.5056948934E+02  5.5056948934E+02  0.0000000000E+00 0. 9.
       6    2    1    2  101    0  8.1955685314E+01  1.7481828909E+02 -1.9969529105E+02  3.2788212886E+02  1.7421341110E+02 0. 9.
      -6    2    1    2    0  102 -8.1955685314E+01 -1.7481828909E+02 -2.2767536601E+02  3.4588619275E+02  1.7470837842E+02 0. 9.
      24    2    3    0    0    0 -1.7355686344E+01  8.9036904011E+01 -5.4435036297E+01  1.3206390658E+02  7.9050060857E+01 0. 9.
       5    1    3    0  101    0  9.9311371658E+01  8.5781385074E+01 -1.4526025475E+02  1.9581822228E+02  4.8000000000E+00 0. 9.
     -24    2    4    0    0    0 -6.1249758984E+01 -1.6866589219E+02 -1.0720232012E+02  2.2339789879E+02  7.8832528686E+01 0. 9.
      -5    1    4    0    0  102 -2.0705926330E+01 -6.1523968975E+00 -1.2047304588E+02  1.2248829396E+02  4.8000000000E+00 0. 9.
      -1    1    5    0    0  103  2.9259075829E+01  2.7016872968E+01 -5.1737965193E+00  4.0160702357E+01  3.3000000000E-01 0. 9.
       2    1    5    0  103    0 -4.6614762173E+01  6.2020031043E+01 -4.9261239778E+01  9.1903204228E+01  3.3000000000E-01 0. 9.
      13    1    7    0    0    0  1.3525015840E+01 -7.4610845017E+01 -4.0269503370E+01  8.5856556612E+01  1.0566000000E-01 0. 9.
     -14    1    7    0    0    0 -7.4774774825E+01 -9.4055047171E+01 -6.6932816755E+01  1.3754134217E+02  0.0000000000E+00 0. 9.
#pdf     2   -2  1.2571309416E-01  5.6180560136E-01  2.6022074015E+02  5.3571686161E-01  6.4825001388E-02
</event>
<event>
    12    81  1.000000E+00  2.104766E+02  7.836988E-03  1.125822E-01
       2   -1    0    0  101    0  0.0000000000E+00  0.0000000000E+00  5.3744353845E+02  5.3744353845E+02  0.0000000000E+00 0. 9.
      -2   -1    0    0    0  102  0.0000000000E+00  0.0000000000E+00 -8.3516910879E+01  8.3516910879E+01  0.0000000000E+00 0. 9.
       6    2    1    2  101    0  3.5738990928E+01 -1.1078132751E+02  1.9192368707E+02  2.8513148235E+02  1.7582799143E+02 0. 9.
      -6    2    1    2    0  102 -3.5738990928E+01  1.1078132751E+02  2.6200294050E+02  3.3582896698E+02  1.7488789619E+02 0. 9.
      24    2    3    0    0    0 -1.4664084017E+01 -8.5093332330E+01  1.9451006750E+02  2.2829775624E+02  8.2642534918E+01 0. 9.
       5    1    3    0  101    0  5.0403074945E+01 -2.5687995177E+01 -2.5863804280E+00  5.6833726113E+01  4.8000000000E+00 0. 9.
     -24    2    4    0    0    0 -5.9747907754E+01  4.0565973279E+01  2.3244684429E+02  2.5580880152E+02  7.8684158797E+01 0. 9.
      -5    1    4    0    0  102  2.4008916826E+01  7.0215354228E+01  2.9556096207E+01  8.0020165455E+01  4.8000000000E+00 0. 9.
      -1    1    5    0    0  103 -3.7818831116E+01 -2.2433978030E+01  3.7962058828E+01  5.8092806506E+01  3.3000000000E-01 0. 9.
       2    1    5    0  103    0  2.3154747099E+01 -6.2659354301E+01  1.5654800867E+02  1.7020494973E+02  3.3000000000E-01 0. 9.
      13    1    7    0    0    0 -3.6233713148E+01  6.3410820882E+01  1.4357016021E+02  1.6107829227E+02  1.0566000000E-01 0. 9.
     -14    1    7    0    0    0 -2.3514194606E+01 -2.2844847602E+01  8.8876684082E+01  9.4730509253E+01  0.0000000000E+00 0. 9.
#pdf     2   -2  5.4841177393E-01  8.5221337632E-02  2.1047661960E+02  7.5038212588E-02  5.6340473446E-01
</event>
<event>
    12    81  1.000000E+00  2.213462E+02  7.841443E-03  1.118088E-01
       2   -1    0    0  101    0  0.0000000000E+00  0.0000000000E+00  2.4238387240E+02  2.4238387240E+02  0.0000000000E+00 0. 9.
      -2   -1    0    0    0  102  0.0000000000E+00  0.0000000000E+00 -3.7207346245E+02  3.7207346245E+02  0.0000000000E+00 0. 9.
       6    2    1    2  101    0  1.2884748835E+02 -2.2025221242E+01 -2.7209285420E+02  3.4919640862E+02  1.7554721549E+02 0. 9.
      -6    2    1    2    0  102 -1.2884748835E+02  2.2025221242E+01  1.4240326415E+02  2.6526092623E+02  1.8165319627E+02 0. 9.
      24    2    3    0    0    0  1.0936570696E+02  4.9224266187E+01 -1.9651958301E+02  2.4341177561E+02  7.9028221263E+01 0. 9.
       5    1    3    0  101    0  1.9481781393E+01 -7.1249487429E+01 -7.5573271182E+01  1.0578463302E+02  4.8000000000E+00 0. 9.
     -24    2    4    0    0    0  1.2500249153E+01  2.6203122804E+00  6.6550520522E+01  1.0360570019E+02  7.8371213237E+01 0. 9.
      -5    1    4    0    0  102 -1.4134773751E+02  1.9404908961E+01  7.5852743625E+01  1.6165522604E+02  4.8000000000E+00 0. 9.
      -3    1    5    0    0  103  4.3620482594E+01  5.5045541097E+01 -1.3947565146E+02  1.5616166446E+02  5.0000000000E-01 0. 9.
       4    1    5    0  103    0  6.5745224367E+01 -5.8212749094E+00 -5.7043931559E+01  8.7250111154E+01  1.5000000000E+00 0. 9.
      13    1    7    0    0    0  1.6604858191E+01 -3.5208562629E+01  2.0924220698E+01  4.4195003946E+01  1.0566000000E-01 0. 9.
     -14    1    7    0    0    0 -4.1046090378E+00  3.7828874910E+01  4.5626299824E+01  5.9410696242E+01  0.0000000000E+00 0. 9.
#pdf     2   -2  2.4733048204E-01  3.7966679842E-01  2.2134619924E+02  4.0260494364E-01  2.2572462760E-01
</event>
<event>
    12    81  1.000000E+00  1.760721E+02  7.821239E-03  1.154118E-01
       1   -1    0    0  101    0  0.0000000000E+00  0.0000000000E+00  2.0634683113E+02  2.0634683113E+02  0.0000000000E+00 0. 9.
      -1   -1    0    0    0  102  0.0000000000E+00  0.0000000000E+00 -1.8770459636E+02  1.8770459636E+02  0.0000000000E+00 0. 9.
       6    2    1    2  101    0 -2.0888972581E+01  1.1527195825E+00 -7.8679585784E+01  1.9338315139E+02  1.7541062706E+02 0. 9.
      -6    2    1    2    0  102  2.0888972581E+01 -1.1527195825E+00  9.7321820552E+01  2.0066827609E+02  1.7423702918E+02 0. 9.
      24    2    3    0    0    0 -6.6862401496E+01  1.6004725418E+01 -9.5037848090E+01  1.4215063253E+02  8.0298678629E+01 0. 9.
       5    1    3    0  101    0  4.5973428914E+01 -1.4852005835E+01  1.6358262306E+01  5.1232518864E+01  4.8000000000E+00 0. 9.
     -24    2    4    0    0    0 -9.4762271580E+00 -6.9357613399E+00 -1.6803967579E+01  8.2333055453E+01  7.9739921165E+01 0. 9.
      -5    1    4    0    0  102  3.0365199739E+01  5.7830417574E+00  1.1412578813E+02  1.1833522064E+02  4.8000000000E+00 0. 9.
      -1    1    5    0    0  103 -4.2113808636E+01  2.1283919701E+01 -1.0487223641E+02  1.1499944776E+02  3.3000000000E-01 0. 9.
       2    1    5    0  103    0 -2.4748592860E+01 -5.2791942831E+00  9.8343883188E+00  2.7151184770E+01  3.3000000000E-01 0. 9.
       3    1    7    0  104    0 -2.3178994088E+01  3.1852915368E+01 -9.4771297956E+00  4.0520858499E+01  5.0000000000E-01 0. 9.
      -4    1    7    0    0  104  1.3702766930E+01 -3.8788676707E+01 -7.3268377830E+00  4.1812196954E+01  1.5000000000E+00 0. 9.
#pdf     1   -1  2.1055799095E-01  1.9153530241E-01  1.7607212485E+02  2.0764285578E-01  2.2737450635E-01
</event>
<event>
    12    81  1.000000E+00  2.163399E+02  7.839418E-03  1.121588E-01
       2   -1    0    0  101    0  0.0000000000E+00  0.0000000000E+00  2.9656470994E+02  2.9656470994E+02  0.0000000000E+00 0. 9.
      -2   -1    0    0    0  102  0.0000000000E+00  0.0000000000E+00 -1.7914992184E+02  1.7914992184E+02  0.0000000000E+00 0. 9.
       6    2    1    2  101    0 -1.2162459039E+02  4.0837665175E+01 -2.3183275740E+01  2.1837680694E+02  1.7518764126E+02 0. 9.
      -6    2    1    2    0  102  1.2162459039E+02 -4.0837665175E+01  1.4059806384E+02  2.5733782485E+02  1.7318973601E+02 0. 9.
      24    2    3    0    0    0 -6.4482298101E+01  3.3104205073E+00 -7.9413700180E+01  1.2972898524E+02  7.9712911010E+01 0. 9.
       5    1    3    0  101    0 -5.7142292286E+01  3.7527244668E+01  5.6230424440E+01  8.8647821703E+01  4.8000000000E+00 0. 9.
     -24    2    4    0    0    0 -1.3853481801E+00 -8.4722659068E+00  2.0993852434E+01  8.2674802311E+01  7.9502720821E+01 0. 9.
      -5    1    4    0    0  102  1.2300993857E+02 -3.2365399268E+01  1.1960421140E+02  1.7466302254E+02  4.8000000000E+00 0. 9.
      -3    1    5    0    0  103 -7.8200801612E+01 -1.3700961322E+01 -7.0151915953E+01  1.0594632144E+02  5.0000000000E-01 0. 9.
       4    1    5    0  103    0  1.3718503511E+01  1.7011381829E+01 -9.2617842268E+00  2.3782663799E+01  1.5000000000E+00 0. 9.
       3    1    7    0  104    0 -1.5832432664E+01  1.9048210419E+01  3.9384539653E+01  4.6528402163E+01  5.0000000000E-01 0. 9.
      -4    1    7    0    0  104  1.4447084484E+01 -2.7520476325E+01 -1.8390687218E+01  3.6146400148E+01  1.5000000000E+00 0. 9.
#pdf     2   -2  3.0261705096E-01  1.8280604270E-01  2.1633990163E+02  3.2652758344E-01  4.8561598432E-01
</event>
<event>
    12    81  1.000000E+00  1.820018E+02  7.824157E-03  1.148760E-01
       2   -1    0    0  101    0  0.0000000000E+00  0.0000000000E+00  1.3257220901E+02  1.3257220901E+02  0.0000000000E+00 0. 9.
      -2   -1    0    0    0  102  0.0000000000E+00  0.0000000000E+00 -3.0704068850E+02  3.0704068850E+02  0.0000000000E+00 0. 9.
       6    2    1    2  101    0  2.9974119662E+01 -3.3747849762E+01 -1.8230786133E+02  2.5799798722E+02  1.7688821299E+02 0. 9.
      -6    2    1    2    0  102 -2.9974119662E+01  3.3747849762E+01  7.8393818404E+00  1.8161491030E+02  1.7574172675E+02 0. 9.
      24    2    3    0    0    0  5.3555086336E+00 -1.9006683717E+01 -2.0514270228E+02  2.2101355878E+02  7.9834387138E+01 0. 9.
       5    1    3    0  101    0  2.4618611028E+01 -1.4741166045E+01  2.2834840952E+01  3.6984428434E+01  4.8000000000E+00 0. 9.
     -24    2    4    0    0    0  2.6396707235E+01 -3.6658366060E+01  4.3464083316E+00  9.1227155509E+01  7.9138364160E+01 0. 9.
      -5    1    4    0    0  102 -5.6370826896E+01  7.0406215822E+01  3.4929735088E+00  9.0387754786E+01  4.8000000000E+00 0. 9.
      -3    1    5    0    0  103  3.7656254690E+01 -2.3105264481E+01 -7.6853433537E+01  8.8648446182E+01  5.0000000000E-01 0. 9.
       4    1    5    0  103    0 -3.2300746056E+01  4.0985807640E+00 -1.2828926874E+02  1.3236511260E+02  1.5000000000E+00 0. 9.
       3    1    7    0  104    0  9.0640648853E+00  8.8477830614E+00  3.2551890533E+01  3.4933023267E+01  5.0000000000E-01 0. 9.
      -4    1    7    0    0  104  1.7332642349E+01 -4.5506149121E+01 -2.8205482201E+01  5.6294132242E+01  1.5000000000E+00 0. 9.
#pdf     2   -2  1.3527776430E-01  3.1330682500E-01  1.8200181983E+02  5.3556719979E-01  3.1707055717E-01
</event>
<event>
    12    81  1.000000E+00  1.975856E+02  7.831404E-03  1.135682E-01
       2   -1    0    0  101    0  0.0000000000E+00  0.0000000000E+00  1.7581412653E+02  1.7581412653E+02  0.0000000000E+00 0. 9.
      -2   -1    0    0    0  102  0.0000000000E+00  0.0000000000E+00 -2.2316176786E+02  2.2316176786E+02  0.0000000000E+00 0. 9.
       6    2    1    2  101    0 -3.9029556782E+01 -8.3308343561E+01 -3.7637913486E+01  1.9978677824E+02  1.7330481187E+02 0. 9.
      -6    2    1    2    0  102  3.9029556782E+01  8.3308343561E+01 -9.7097278454E+00  1.9918911615E+02  1.7640419147E+02 0. 9.
      24    2    3    0    0    0  3.9027172173E+00  1.9557164976E+01  9.2673811231E-01  8.1741171158E+01  7.9265669209E+01 0. 9.
       5    1    3    0  101    0 -4.2932273999E+01 -1.0286550854E+02 -3.8564651598E+01  1.1804560708E+02  4.8000000000E+00 0. 9.
     -24    2    4    0    0    0  9.8913797736E+00  1.2393017282E+02  2.9542021000E-02  1.4803190992E+02  8.0354952251E+01 0. 9.
      -5    1    4    0    0  102  2.9138177008E+01 -4.0621829262E+01 -9.7392698664E+00  5.1157206233E+01  4.8000000000E+00 0. 9.
     -11    1    5    0    0    0  1.8698234096E+01 -1.1008885715E+01  3.0008637338E+01  3.7031578931E+01  5.1000000000E-04 0. 9.
      12    1    5    0    0    0 -1.4795516878E+01  3.0566050690E+01 -2.9081899226E+01  4.4709592227E+01  0.0000000000E+00 0. 9.
      13    1    7    0    0    0  2.6344299737E+01  9.0744194772E+01 -3.1277528990E+01  9.9533039726E+01  1.0566000000E-01 0. 9.
     -14    1    7    0    0    0 -1.6452919964E+01  3.3185978052E+01  3.1307071011E+01  4.8498870191E+01  0.0000000000E+00 0. 9.
#pdf     2   -2  1.7940216993E-01  2.2771608965E-01  1.9758563891E+02  4.9185325045E-01  4.3254396610E-01
</event>
<event>
    12    81  1.000000E+00  2.011242E+02  7.832971E-03  1.132895E-01
       2   -1    0    0  101    0  0.0000000000E+00  0.0000000000E+00  4.7201787446E+02  4.7201787446E+02  0.0000000000E+00 0. 9.
      -2   -1    0    0    0  102  0.0000000000E+00  0.0000000000E+00 -1.0992027317E+02  1.0992027317E+02  0.0000000000E+00 0. 9.
       6    2    1    2  101    0 -8.7896641880E+01 -3.3948604151E+01  4.7667171358E+01  2.1123648154E+02  1.8294907633E+02 0. 9.
      -6    2    1    2    0  102  8.7896641880E+01  3.3948604151E+01  3.1443042994E+02  3.7070166609E+02  1.7226404905E+02 0. 9.
      24    2    3    0    0    0 -2.2764266664E+01 -5.0155132917E+01  8.9060365542E+01  1.3223449168E+02  8.0749383190E+01 0. 9.
       5    1    3    0  101    0 -6.5132375216E+01  1.6206528766E+01 -4.1393194184E+01  7.9001989853E+01  4.8000000000E+00 0. 9.
     -24    2    4    0    0    0  4.2888592309E+01  1.5016711278E+00  5.6085288446E+01  1.0642192771E+02  7.9613948214E+01 0. 9.
      -5    1    4    0    0  102  4.5008049571E+01  3.2446933023E+01  2.5834514149E+02  2.6427973839E+02  4.8000000000E+00 0. 9.
      -1    1    5    0    0  103 -4.3619050193E+01 -5.7251813235E+01  5.0845391287E+01  8.8123517710E+01  3.3000000000E-01 0. 9.
       2    1    5    0  103    0  2.0854783529E+01  7.0966803179E+00  3.8214974255E+01  4.4110973973E+01  3.3000000000E-01 0. 9.
       1    1    7    0  104    0  4.0122466963E+01  3.0570512419E+01  9.3328883212E+00  5.1298930683E+01  3.3000000000E-01 0. 9.
      -2    1    7    0    0  104  2.7661253465E+00 -2.9068841292E+01  4.6752400125E+01  5.5122997024E+01  3.3000000000E-01 0. 9.
#pdf     2   -2  4.8165089231E-01  1.1216354405E-01  2.0112424255E+02  1.2383233420E-01  5.4960718121E-01
</event>
<event>
    12    81  1.000000E+00  1.927970E+02  7.829238E-03  1.139556E-01
       2   -1    0    0  101    0  0.0000000000E+00  0.0000000000E+00  1.1386945390E+02  1.1386945390E+02  0.0000000000E+00 0. 9.
      -2   -1    0    0    0  102  0.0000000000E+00  0.0000000000E+00 -5.0034825122E+02  5.0034825122E+02  0.0000000000E+00 0. 9.
       6    2    1    2  101    0 -4.9230000105E+01 -6.6154156635E+01 -1.2032327082E+01  1.9294981135E+02  1.7402553679E+02 0. 9.
      -6    2    1    2    0  102  4.9230000105E+01  6.6154156635E+01 -3.7444647023E+02  4.2126789377E+02  1.7451794723E+02 0. 9.
      24    2    3    0    0    0  1.0263279089E+01 -7.7456676716E+01 -4.8630976106E+01  1.2202944516E+02  8.0133276388E+01 0. 9.
       5    1    3    0  101    0 -5.9493279194E+01  1.1302520080E+01  3.6598649025E+01  7.0920366185E+01  4.8000000000E+00 0. 9.
     -24    2    4    0    0    0 -5.0778639171E-01  1.0151693560E+02 -2.8673575443E+02  3.1430723180E+02  7.9156156025E+01 0. 9.
      -5    1    4    0    0  102  4.9737786497E+01 -3.5362778967E+01 -8.7710715805E+01  1.0696066197E+02  4.8000000000E+00 0. 9.
      -3    1    5    0    0  103 -1.6094706557E+01 -4.1570793411E+01  1.2580774843E+01  4.6321661668E+01  5.0000000000E-01 0. 9.
       4    1    5    0  103    0  2.6357985646E+01 -3.5885883304E+01 -6.1211750949E+01  7.5707783497E+01  1.5000000000E+00 0. 9.
       1    1    7    0  104    0 -1.3109595794E+01  1.6122706709E+01 -7.5985109466E+00  2.2128023909E+01  3.3000000000E-01 0. 9.
      -2    1    7    0    0  104  1.2601809403E+01  8.5394228893E+01 -2.7913724348E+02  2.9217920790E+02  3.3000000000E-01 0. 9.
#pdf     2   -2  1.1619332031E-01  5.1055944002E-01  1.9279695545E+02  5.4782869910E-01  1.0173244532E-01
</event>
<event>
    12    81  1.000000E+00  1.917239E+02  7.828746E-03  1.140441E-01
       2   -1    0    0  101    0  0.0000000000E+00  0.0000000000E+00  2.3761538408E+02  2.3761538408E+02  0.0000000000E+00 0. 9.
      -2   -1    0    0    0  102  0.0000000000E+00  0.0000000000E+00 -1.7271916623E+02  1.7271916623E+02  0.0000000000E+00 0. 9.
       6    2    1    2  101    0 -5.8545374140E+01  5.1293766152E+01  9.8675170014E+01  2.1533322553E+02  1.7485135847E+02 0. 9.
      -6    2    1    2    0  102  5.8545374140E+01 -5.1293766152E+01 -3.3778952164E+01  1.9500132478E+02  1.7557302691E+02 0. 9.
      24    2    3    0    0    0 -3.4192985694E+01 -3.5927570528E+01  7.8021321848E+01  1.2232665673E+02  8.0103268907E+01 0. 9.
       5    1    3    0  101    0 -2.4352388446E+01  8.7221336680E+01  2.0653848166E+01  9.3006568797E+01  4.8000000000E+00 0. 9.
     -24    2    4    0    0    0  9.3103888188E+01  6.0316323032E+00 -3.2289674117E+01  1.2787644005E+02  8.1271435828E+01 0. 9.
      -5    1    4    0    0  102 -3.4558514048E+01 -5.7325398456E+01 -1.4892780475E+00  6.7124884733E+01  4.8000000000E+00 0. 9.
     -11    1    5    0    0    0 -1.2872578381E+01  1.2562281083E+01  6.5461995325E+01  6.7888047640E+01  5.1000000000E-04 0. 9.
      12    1    5    0    0    0 -2.1320407313E+01 -4.8489851610E+01  1.2559326523E+01  5.4438609092E+01  0.0000000000E+00 0. 9.
       3    1    7    0  103    0  5.0276479606E+01 -2.9994589565E+01 -4.0644398458E+01  7.1271431379E+01  5.0000000000E-01 0. 9.
      -4    1    7    0    0  103  4.2827408582E+01  3.6026221868E+01  8.3547243413E+00  5.6605008672E+01  1.5000000000E+00 0. 9.
#pdf     2   -2  2.4246467763E-01  1.7624404717E-01  1.9172390031E+02  4.1364236286E-01  4.9610687683E-01
</event>
<event>
    12    81  1.000000E+00  3.219574E+02  7.874752E-03  1.063712E-01
       2   -1    0    0  101    0  0.0000000000E+00  0.0000000000E+00  4.7871142540E+02  4.7871142540E+02  0.0000000000E+00 0. 9.
      -2   -1    0    0    0  102  0.0000000000E+00  0.0000000000E+00 -2.2588599680E+02  2.2588599680E+02  0.0000000000E+00 0. 9.
       6    2    1    2  101    0  2.1299389630E+02  1.6584475226E+02  1.9795514038E+02  3.7760977359E+02  1.7473414603E+02 0. 9.
      -6    2    1    2    0  102 -2.1299389630E+02 -1.6584475226E+02  5.4870288217E+01  3.2698764862E+02  1.7617971536E+02 0. 9.
      24    2    3    0    0    0  2.4006464744E+01  2.8599070346E+01  6.6593604331E+01  1.0959574477E+02  7.8627615752E+01 0. 9.
       5    1    3    0  101    0  1.8898743156E+02  1.3724568192E+02  1.3136153605E+02  2.6801402882E+02  4.8000000000E+00 0. 9.
     -24    2    4    0    0    0 -2.2774384590E+02 -1.1890529155E+02  2.7435087411E+01  2.7044912876E+02  7.9901936902E+01 0. 9.
      -5    1    4    0    0  102  1.4749949593E+01 -4.6939460708E+01  2.7435200806E+01  5.6538519859E+01  4.8000000000E+00 0. 9.
      -1    1    5    0    0  103  6.9295792702E+00  2.6735262758E+01 -1.1290364082E+01  2.9839144839E+01  3.3000000000E-01 0. 9.
       2    1    5    0  103    0  1.7076885474E+01  1.8638075885E+00  7.7883968413E+01  7.9756599927E+01  3.3000000000E-01 0. 9.
       1    1    7    0  104    0 -5.9035490053E+00 -1.2049952922E+01 -1.5490808092E+01  2.0497006894E+01  3.3000000000E-01 0. 9.
      -4    1    7    0    0  104 -2.2184029689E+02 -1.0685533863E+02  4.2925895502E+01  2.4995212186E+02  1.5000000000E+00 0. 9.
#pdf     2   -2  4.8848104633E-01  2.3049591511E-01  3.2195735535E+02  1.1036108555E-01  4.1457949981E-01
</event>
<event>
    12    82  1.000000E+00  1.927989E+02  7.829239E-03  1.139554E-01
      21   -1    0    0  101  102  0.0000000000E+00  0.0000000000E+00  1.6568313618E+02  1.6568313618E+02  0.0000000000E+00 0. 9.
      21   -1    0    0  103  101  0.0000000000E+00  0.0000000000E+00 -2.2470556499E+02  2.2470556499E+02  0.0000000000E+00 0. 9.
       6    2    1    2  103    0 -5.3695911369E+01 -6.0305882472E+01 -3.7229733433E+01  1.9623673657E+02  1.7493642665E+02 0. 9.
      -6    2    1    2    0  102  5.3695911369E+01  6.0305882472E+01 -2.1792695375E+01  1.9415196460E+02  1.7521419300E+02 0. 9.
      24    2    3    0    0    0  2.3658314633E+01 -7.4800267365E+01 -6.3935822367E+00  1.1157463351E+02  7.9077336197E+01 0. 9.
       5    1    3    0  103    0 -7.7354226002E+01  1.4494384893E+01 -3.0836151196E+01  8.4662103059E+01  4.8000000000E+00 0. 9.
     -24    2    4    0    0    0  7.3772930033E+01 -8.6846216598E+00  2.3345572636E+01  1.0916208533E+02  7.6508020842E+01 0. 9.
      -5    1    4    0    0  102 -2.0077018665E+01  6.8990504132E+01 -4.5138268010E+01  8.4989879267E+01  4.8000000000E+00 0. 9.
      -1    1    5    0    0  104 -1.0708533469E+01 -6.0800598578E+01  2.1258503451E+01  6.5294856960E+01  3.3000000000E-01 0. 9.
       2    1    5    0  104    0  3.4366848102E+01 -1.3999668787E+01 -2.7652085688E+01  4.6279776550E+01  3.3000000000E-01 0. 9.
      15    1    7    0    0    0  3.7696547810E+00 -1.8915738582E+01  3.2491025462E+01  3.7826444822E+01  1.7770000000E+00 0. 9.
     -16    1    7    0    0    0  7.0003275253E+01  1.0231116922E+01 -9.1454528265E+00  7.1335640510E+01  0.0000000000E+00 0. 9.
#pdf    21   21  1.6906442467E-01  2.2929139284E-01  1.9279894646E+02  2.8981851122E-01  1.4336529383E-01
</event>
<event>
    12    81  1.000000E+00  1.853335E+02  7.825756E-03  1.145846E-01
       2   -1    0    0  101    0  0.0000000000E+00  0.0000000000E+00  3.4937584939E+02  3.4937584939E+02  0.0000000000E+00 0. 9.
      -2   -1    0    0    0  102  0.0000000000E+00  0.0000000000E+00 -1.1363570568E+02  1.1363570568E+02  0.0000000000E+00 0. 9.
       6    2    1    2  101    0  2.4793878507E+01  6.1221801930E+01  2.0332952902E+02  2.7566734319E+02  1.7403086303E+02 0. 9.
      -6    2    1    2    0  102 -2.4793878507E+01 -6.1221801930E+01  3.2410614697E+01  1.8734421189E+02  1.7229207858E+02 0. 9.
      24    2    3    0    0    0  2.6229124111E+01  3.4253507696E+01  2.2489961158E+02  2.4077239676E+02  7.4365596955E+01 0. 9.
       5    1    3    0  101    0 -1.4352456046E+00  2.6968294234E+01 -2.1570082569E+01  3.4894946423E+01  4.8000000000E+00 0. 9.
     -24    2    4    0    0    0 -7.3633578174E+01 -7.4580904923E+01  3.8403544987E+01  1.3613154637E+02  7.7927854035E+01 0. 9.
      -5    1    4    0    0  102  4.8839699667E+01  1.3359102993E+01 -5.9929302907E+00  5.1212665522E+01  4.8000000000E+00 0. 9.
     -11    1    5    0    0    0 -2.1267500114E+01 -2.1872449724E+00  1.0009171316E+02  1.0234960501E+02  5.1000000000E-04 0. 9.
      12    1    5    0    0    0  4.7496624225E+01  3.6440752669E+01  1.2480789842E+02  1.3842279175E+02  0.0000000000E+00 0. 9.
       3    1    7    0  103    0 -7.8095158650E+01 -7.4101204787E+01  1.0881551754E+01  1.0820582482E+02  5.0000000000E-01 0. 9.
      -4    1    7    0    0  103  4.4615804757E+00 -4.7970013660E-01  2.7521993234E+01  2.7925721550E+01  1.5000000000E+00 0. 9.
#pdf     2   -2  3.5650596877E-01  1.1595480171E-01  1.8533347311E+02  2.5918022709E-01  5.4867069361E-01
</event>
<event>
    12    82  1.000000E+00  2.210301E+02  7.841316E-03  1.118306E-01
      21   -1    0    0  101  102  0.0000000000E+00  0.0000000000E+00  1.3400837293E+02  1.3400837293E+02  0.0000000000E+00 0. 9.
      21   -1    0    0  102  103  0.0000000000E+00  0.0000000000E+00 -5.6188082416E+02  5.6188082416E+02  0.0000000000E+00 0. 9.
      -6    2    1    2    0  103  1.1337004039E+02  7.3559408964E+01 -4.2002485081E+02  4.7455466698E+02  1.7469259842E+02 0. 9.
       6    2    1    2  101    0 -1.1337004039E+02 -7.3559408964E+01 -7.8476004115E+00  2.2133453012E+02  1.7511035573E+02 0. 9.
     -24    2    3    0    0    0  6.7554937589E+01  5.3070036275E+01 -4.0311084540E+02  4.2137608466E+02  8.7631915989E+01 0. 9.
      -5    1    3    0    0  103  4.5815102802E+01  2.0489372689E+01 -1.6914005411E+01  5.3178582315E+01  4.8000000000E+00 0. 9.
      24    2    4    0    0    0 -9.1774596535E+01 -4.3913616211E+01  6.0336968787E+01  1.4376255257E+02  8.1707646291E+01 0. 9.
       5    1    4    0  101    0 -2.1595443856E+01 -2.9645792754E+01 -6.8184569199E+01  7.7571977544E+01  4.8000000000E+00 0. 9.
      11    1    5    0    0    0  5.7360388575E+01  7.4646441722E+01 -3.5995627274E+02  3.7206292979E+02  5.1000000000E-04 0. 9.
     -12    1    5    0    0    0  1.0194549014E+01 -2.1576405446E+01 -4.3154572664E+01  4.9313154871E+01  0.0000000000E+00 0. 9.
      -3    1    7    0    0  104 -2.8844990197E+01 -4.4697177647E+01 -4.5039411660E+00  5.3389199611E+01  5.0000000000E-01 0. 9.
       4    1    7    0  104    0 -6.2929606337E+01  7.8356143588E-01  6.4840909953E+01  9.0373352963E+01  1.5000000000E+00 0. 9.
#pdf    21   21  1.3674323769E-01  5.7334777976E-01  2.2103014052E+02  4.2897722235E-01  2.1297598720E-03
</event>
<event>
    12    81  1.000000E+00  1.853465E+02  7.825762E-03  1.145835E-01
       2   -1    0    0  101    0  0.0000000000E+00  0.0000000000E+00  1.3233797936E+02  1.3233797936E+02  0.0000000000E+00 0. 9.
      -2   -1    0    0    0  102  0.0000000000E+00  0.0000000000E+00 -2.6798902230E+02  2.6798902230E+02  0.0000000000E+00 0. 9.
       6    2    1    2  101    0 -7.3168045423E+01  4.5493633327E+00 -2.9922146871E+01  1.8213953973E+02  1.6402809967E+02 0. 9.
      -6    2    1    2    0  102  7.3168045423E+01 -4.5493633327E+00 -1.0572889607E+02  2.1818746193E+02  1.7621835745E+02 0. 9.
      24    2    3    0    0    0  8.6966646051E+00  3.1104944333E+01 -3.7860724420E+01  9.5576899725E+01  8.1598773093E+01 0. 9.
       5    1    3    0  101    0 -8.1864710028E+01 -2.6555581000E+01  7.9385775492E+00  8.6562640000E+01  4.8000000000E+00 0. 9.
     -24    2    4    0    0    0  6.5282171271E+01  6.1201410073E+01 -8.2606668341E+01  1.4788078636E+02  8.3889754080E+01 0. 9.
      -5    1    4    0    0  102  7.8858741524E+00 -6.5750773405E+01 -2.3122227727E+01  7.0306675569E+01  4.8000000000E+00 0. 9.
      -3    1    5    0    0  103 -3.1356756247E+01  2.9601023780E+01 -3.4683922977E+01  5.5341587294E+01  5.0000000000E-01 0. 9.
       4    1    5    0  103    0  4.0053420852E+01  1.5039205526E+00 -3.1768014434E+00  4.0235312431E+01  1.5000000000E+00 0. 9.
       3    1    7    0  104    0  4.4366363409E+01  2.2711962558E+01 -9.0524890215E+01  1.0334027866E+02  5.0000000000E-01 0. 9.
      -4    1    7    0    0  104  2.0915807862E+01  3.8489447515E+01  7.9182218736E+00  4.4540507700E+01  1.5000000000E+00 0. 9.
#pdf     2   -2  1.3503875445E-01  2.7345818602E-01  1.8534649462E+02  5.3536899214E-01  3.7184485101E-01
</event>
<event>
    12    81  1.000000E+00  1.770114E+02  7.821707E-03  1.153254E-01
       2   -1    0    0  101    0  0.0000000000E+00  0.0000000000E+00  8.7621689299E+01  8.7621689299E+01  0.0000000000E+00 0. 9.
      -2   -1    0    0    0  102  0.0000000000E+00  0.0000000000E+00 -3.6499346963E+02  3.6499346963E+02  0.0000000000E+00 0. 9.
       6    2    1    2  101    0 -2.9280644300E+01  8.8745497144E+00 -1.7074555042E+02  2.4578853130E+02  1.7413168973E+02 0. 9.
      -6    2    1    2    0  102  2.9280644300E+01 -8.8745497144E+00 -1.0662622991E+02  2.0682662762E+02  1.7456227321E+02 0. 9.
      24    2    3    0    0    0 -1.6723868733E+01 -2.6844095282E+01 -1.8473948986E+02  2.0513924405E+02  8.3385472955E+01 0. 9.
       5    1    3    0  101    0 -1.2556775568E+01  3.5718644996E+01  1.3993939436E+01  4.0649287250E+01  4.8000000000E+00 0. 9.
     -24    2    4    0    0    0 -2.5689341666E+01  9.1908157304E+00 -1.8110229947E+00  8.7004574622E+01  8.2596021889E+01 0. 9.
      -5    1    4    0    0  102  5.4969985966E+01 -1.8065365445E+01 -1.0481520691E+02  1.1982205300E+02  4.8000000000E+00 0. 9.
      -1    1    5    0    0  103 -4.2772350448E+01 -1.2166667345E+01 -1.6079923696E+02  1.6683526385E+02  3.3000000000E-01 0. 9.
       2    1    5    0  103    0  2.6048481715E+01 -1.4677427937E+01 -2.3940252902E+01  3.8303980204E+01  3.3000000000E-01 0. 9.
      15    1    7    0    0    0  2.5315959691E+01  8.6057633621E+00 -1.9362356440E+01  3.3060785744E+01  1.7770000000E+00 0. 9.
     -16    1    7    0    0    0 -5.1005301357E+01  5.8505236838E-01  1.7551333446E+01  5.3943788878E+01  0.0000000000E+00 0. 9.
#pdf     2   -2  8.9409887040E-02  3.7244231595E-01  1.7701138399E+02  5.6337402590E-01  2.4047641641E-01
</event>
<event>
    12    81  1.000000E+00  1.888867E+02  7.827430E-03  1.142812E-01
       2   -1    0    0  101    0  0.0000000000E+00  0.0000000000E+00  2.0079297246E+02  2.0079297246E+02  0.0000000000E+00 0. 9.
      -2   -1    0    0    0  102  0.0000000000E+00  0.0000000000E+00 -2.4449509856E+02  2.4449509856E+02  0.0000000000E+00 0. 9.
       6    2    1    2  101    0 -1.2245491428E+01 -6.8972443942E+01 -1.3811822715E+02  2.3281005326E+02  1.7382958938E+02 0. 9.
      -6    2    1    2    0  102  1.2245491428E+01  6.8972443942E+01  9.4416101051E+01  2.1247801776E+02  1.7698971103E+02 0. 9.
      24    2    3    0    0    0 -3.9467948982E+01 -8.6726486760E+01 -4.3907297212E+01  1.3303526911E+02  8.1800547535E+01 0. 9.
       5    1    3    0  101    0  2.7222457554E+01  1.7754042818E+01 -9.4210929941E+01  9.9774784149E+01  4.8000000000E+00 0. 9.
     -24    2    4    0    0    0  2.1820503537E+01  3.1554162537E+00 -1.5607933143E+01  8.3823868619E+01  7.9352015393E+01 0. 9.
      -5    1    4    0    0  102 -9.5750121094E+00  6.5817027689E+01  1.1002403419E+02  1.2865414914E+02  4.8000000000E+00 0. 9.
      -3    1    5    0    0  103 -2.8276824129E+00 -5.1400100328E-01  1.9623067305E+01  1.9838718591E+01  5.0000000000E-01 0. 9.
       4    1    5    0  103    0 -3.6640266569E+01 -8.6212485757E+01 -6.3530364517E+01  1.1319655052E+02  1.5000000000E+00 0. 9.
      15    1    7    0    0    0  2.6493000610E+01  3.8417792028E+01 -1.0761125265E+01  4.7924580036E+01  1.7770000000E+00 0. 9.
     -16    1    7    0    0    0 -4.6724970729E+00 -3.5262375775E+01 -4.8468078775E+00  3.5899288583E+01  0.0000000000E+00 0. 9.
#pdf     2   -2  2.0489078822E-01  2.4948479445E-01  1.8888671753E+02  4.6318975974E-01  4.0450585789E-01
</event>
<event>
    12    81  1.000000E+00  1.768315E+02  7.821618E-03  1.153419E-01
       2   -1    0    0  101    0  0.0000000000E+00  0.0000000000E+00  2.9574732571E+02  2.9574732571E+02  0.0000000000E+00 0. 9.
      -2   -1    0    0    0  102  0.0000000000E+00  0.0000000000E+00 -1.1171219609E+02  1.1171219609E+02  0.0000000000E+00 0. 9.
       6    2    1    2  101    0  8.6051437276E+00 -2.1311589257E+01  1.3907199915E+02  2.2482258271E+02  1.7514548356E+02 0. 9.
      -6    2    1    2    0  102 -8.6051437276E+00  2.1311589257E+01  4.4963130467E+01  1.8263693909E+02  1.7551733841E+02 0. 9.
      24    2    3    0    0    0  3.8592245411E+01  3.9479471961E+01  1.0193685410E+02  1.4738332658E+02  9.1009519383E+01 0. 9.
       5    1    3    0  101    0 -2.9987101684E+01 -6.0791061218E+01  3.7135145048E+01  7.7439256125E+01  4.8000000000E+00 0. 9.
     -24    2    4    0    0    0 -2.2954857132E+01 -3.7163131064E+01  8.1001694830E+01  1.1230184605E+02  6.4361527981E+01 0. 9.
      -5    1    4    0    0  102  1.4349713404E+01  5.8474720321E+01 -3.6038564362E+01  7.0335093038E+01  4.8000000000E+00 0. 9.
      -1    1    5    0    0  103 -3.2762216192E+00 -2.5509651529E+01  4.3257926482E+01  5.0327259539E+01  3.3000000000E-01 0. 9.
       2    1    5    0  103    0  4.1868467031E+01  6.4989123489E+01  5.8678927623E+01  9.7056067046E+01  3.3000000000E-01 0. 9.
      11    1    7    0    0    0  4.4798584998E+00 -4.0670324572E+01  7.2702745310E+01  8.3425617222E+01  5.1000000000E-04 0. 9.
     -12    1    7    0    0    0 -2.7434715632E+01  3.5071935080E+00  8.2989495201E+00  2.8876228826E+01  0.0000000000E+00 0. 9.
#pdf     2   -2  3.0178298542E-01  1.1399203682E-01  1.7683147509E+02  3.3384583708E-01  5.5068313959E-01
</event>
<event>
    12    81  1.000000E+00  2.587486E+02  7.855288E-03  1.094769E-01
       2   -1    0    0  101    0  0.0000000000E+00  0.0000000000E+00  3.6882343004E+02  3.6882343004E+02  0.0000000000E+00 0. 9.
      -2   -1    0    0    0  102  0.0000000000E+00  0.0000000000E+00 -1.8332939031E+02  1.8332939031E+02  0.0000000000E+00 0. 9.
       6    2    1    2  101    0 -1.7550788579E+02 -7.4790795170E+01  6.5328874997E+01  2.6678051402E+02  1.7466338979E+02 0. 9.
      -6    2    1    2    0  102  1.7550788579E+02  7.4790795170E+01  1.2016516473E+02  2.8537230633E+02  1.7493143053E+02 0. 9.
      24    2    3    0    0    0 -1.9126091695E+02 -8.4414892392E+01  2.9655683032E+01  2.2632809922E+02  8.1475987581E+01 0. 9.
       5    1    3    0  101    0  1.5753031154E+01  9.6240972218E+00  3.5673191964E+01  4.0452414796E+01  4.8000000000E+00 0. 9.
     -24    2    4    0    0    0  1.7484848492E+01  5.0421798511E+01  2.3789585392E+01  9.8620008863E+01  7.9447366747E+01 0. 9.
      -5    1    4    0    0  102  1.5802303730E+02  2.4368996659E+01  9.6375579341E+01  1.8675229747E+02  4.8000000000E+00 0. 9.
      -1    1    5    0    0  103 -1.7187321250E+01 -3.1356143567E+01 -1.5271533298E+01  3.8883677558E+01  3.3000000000E-01 0. 9.
       2    1    5    0  103    0 -1.7407359570E+02 -5.3058748825E+01  4.4927216330E+01  1.8744442166E+02  3.3000000000E-01 0. 9.
      11    1    7    0    0    0  2.8404872715E+01 -1.2362890460E+01  1.1811254162E+00  3.1001175977E+01  5.1000000000E-04 0. 9.
     -12    1    7    0    0    0 -1.0920024223E+01  6.2784688971E+01  2.2608459976E+01  6.7618832885E+01  0.0000000000E+00 0. 9.
#pdf     2   -2  3.7635043882E-01  1.8707080644E-01  2.5874859145E+02  2.2570014666E-01  4.7591284804E-01
</event>
<event>
    12    81  1.000000E+00  1.863108E+02  7.826219E-03  1.145004E-01
       2   -1    0    0  101    0  0.0000000000E+00  0.0000000000E+00  1.5106061681E+02  1.5106061681E+02  0.0000000000E+00 0. 9.
      -2   -1    0    0    0  102  0.0000000000E+00  0.0000000000E+00 -2.3002834331E+02  2.3002834331E+02  0.0000000000E+00 0. 9.
       6    2    1    2  101    0 -5.8044188356E+01  3.1032441107E+01 -3.2930770984E+01  1.8800780718E+02  1.7300392967E+02 0. 9.
      -6    2    1    2    0  102  5.8044188356E+01 -3.1032441107E+01 -4.6036955515E+01  1.9308115293E+02  1.7558129212E+02 0. 9.
      24    2    3    0    0    0  2.3101794789E+01 -8.8491898728E+00  1.6795879823E+01  8.4707299582E+01  7.9254173010E+01 0. 9.
       5    1    3    0  101    0 -8.1145983145E+01  3.9881630980E+01 -4.9726650807E+01  1.0330050760E+02  4.8000000000E+00 0. 9.
     -24    2    4    0    0    0 -3.0352704944E+01  1.4888891317E+01 -3.2069994143E+01  9.2379139416E+01  7.9764999171E+01 0. 9.
      -5    1    4    0    0  102  8.8396893300E+01 -4.5921332424E+01 -1.3966961372E+01  1.0070201352E+02  4.8000000000E+00 0. 9.
      -1    1    5    0    0  103  5.1147574511E+00 -2.3918371548E+01 -2.6125295192E+01  3.5789512293E+01  3.3000000000E-01 0. 9.
       2    1    5    0  103    0  1.7987037338E+01  1.5069181675E+01  4.2921175015E+01  4.8917787289E+01  3.3000000000E-01 0. 9.
      11    1    7    0    0    0 -4.7730593821E-01 -1.0803351195E+01 -4.8497468665E+01  4.9688476382E+01  5.1000000000E-04 0. 9.
     -12    1    7    0    0    0 -2.9875399006E+01  2.5692242512E+01  1.6427474522E+01  4.2690663033E+01  0.0000000000E+00 0. 9.
#pdf     2   -2  1.5414348654E-01  2.3472279929E-01  1.8631080246E+02  5.1903357857E-01  4.2498806627E-01
</event>
<event>
    12    81  1.000000E+00  2.064818E+02  7.835294E-03  1.128793E-01
       2   -1    0    0  101    0  0.0000000000E+00  0.0000000000E+00  1.8314917503E+02  1.8314917503E+02  0.0000000000E+00 0. 9.
      -2   -1    0    0    0  102  0.0000000000E+00  0.0000000000E+00 -2.4350489549E+02  2.4350489549E+02  0.0000000000E+00 0. 9.
       6    2    1    2  101    0  6.4349434509E+01 -8.9447686353E+01  1.4588163007E+01  2.0692418419E+02  1.7453671587E+02 0. 9.
      -6    2    1    2    0  102 -6.4349434509E+01  8.9447686353E+01 -7.4943883467E+01  2.1972988633E+02  1.7470803920E+02 0. 9.
      24    2    3    0    0    0  9.3693583124E+01 -9.6193609430E+01 -2.2740603365E+01  1.5872601685E+02  8.1517577058E+01 0. 9.
       5    1    3    0  101    0 -2.9344148615E+01  6.7459230764E+00  3.7328766373E+01  4.8198167340E+01  4.8000000000E+00 0. 9.
     -24    2    4    0    0    0 -5.4542692589E+01  1.3130766937E+02 -5.6868634414E+01  1.7284508076E+02  8.0154669294E+01 0. 9.
      -5    1    4    0    0  102 -9.8067419204E+00 -4.1859983022E+01 -1.8075249053E+01  4.6884805577E+01  4.8000000000E+00 0. 9.
      -3    1    5    0    0  103  7.5330903704E+01 -2.0091434311E+01 -1.9455509295E+01  8.0356565553E+01  5.0000000000E-01 0. 9.
       4    1    5    0  103    0  1.8362679420E+01 -7.6102175119E+01 -3.2850940704E+00  7.8369451295E+01  1.5000000000E+00 0. 9.
       3    1    7    0  104    0 -4.4989183689E+01  9.5373000960E+01 -7.6964970716E+01  1.3055226033E+02  5.0000000000E-01 0. 9.
      -4    1    7    0    0  104 -9.5535088996E+00  3.5934668415E+01  2.0096336302E+01  4.2292820421E+01  1.5000000000E+00 0. 9.
#pdf     2   -2  1.8688691330E-01  2.4847438315E-01  2.0648176769E+02  4.8221324502E-01  4.0314856305E-01
</event>
<event>
    12    81  1.000000E+00  1.792193E+02  7.822799E-03  1.151246E-01
       2   -1    0    0  101    0  0.0000000000E+00  0.0000000000E+00  1.4774372979E+02  1.4774372979E+02  0.0000000000E+00 0. 9.
      -2   -1    0    0    0  102  0.0000000000E+00  0.0000000000E+00 -2.2421555125E+02  2.2421555125E+02  0.0000000000E+00 0. 9.
       6    2    1    2  101    0 -4.0309294649E+01  1.7752785927E+01 -5.4135737792E+00  1.7758856925E+02  1.7195462339E+02 0. 9.
      -6    2    1    2    0  102  4.0309294649E+01 -1.7752785927E+01 -7.1058247676E+01  1.9437071179E+02  1.7547278534E+02 0. 9.
      24    2    3    0    0    0 -4.8322886218E+01 -3.4420731224E+01 -4.7928034084E+01  1.0964143630E+02  7.8767125325E+01 0. 9.
       5    1    3    0  101    0  8.0135915687E+00  5.2173517151E+01  4.2514460305E+01  6.7947132955E+01  4.8000000000E+00 0. 9.
     -24    2    4    0    0    0 -4.2932514243E+01 -3.3531125826E+01 -4.0864633721E+01  1.0429935629E+02  7.8999368699E+01 0. 9.
      -5    1    4    0    0  102  8.3241808892E+01  1.5778339899E+01 -3.0193613955E+01  9.0071355498E+01  4.8000000000E+00 0. 9.
     -11    1    5    0    0    0 -7.0159394835E+01 -2.8655124764E+01 -3.3638300874E+01  8.2915572390E+01  5.1000000000E-04 0. 9.
      12    1    5    0    0    0  2.1836508617E+01 -5.7656064603E+00 -1.4289733210E+01  2.6725863908E+01  0.0000000000E+00 0. 9.
       3    1    7    0  103    0 -4.7852004680E+01 -6.2217466070E+00  7.1880425881E+00  4.8789778017E+01  5.0000000000E-01 0. 9.
      -4    1    7    0    0  103  4.9194904364E+00 -2.7309379219E+01 -4.8052676309E+01  5.5509578272E+01  1.5000000000E+00 0. 9.
#pdf     2   -2  1.5075890795E-01  2.2879137882E-01  1.7921926820E+02  5.2302523633E-01  4.3408655319E-01
</event>
<event>
    12    81  1.000000E+00  1.851261E+02  7.825657E-03  1.146026E-01
       2   -1    0    0  101    0  0.0000000000E+00  0.0000000000E+00  3.8009378427E+02  3.8009378427E+02  0.0000000000E+00 0. 9.
      -2   -1    0    0    0  102  0.0000000000E+00  0.0000000000E+00 -9.2758730815E+01  9.2758730815E+01  0.0000000000E+00 0. 9.
       6    2    1    2  101    0  3.4291987903E+00  5.9529364852E+01  1.0437106224E+02  2.1278551251E+02  1.7558146547E+02 0. 9.
      -6    2    1    2    0  102 -3.4291987903E+00 -5.9529364852E+01  1.8296399121E+02  2.6006700258E+02  1.7493861513E+02 0. 9.
      24    2    3    0    0    0  6.5555271557E+01  1.9777472514E+01  3.3427602271E+01  1.1033612806E+02  7.9799840312E+01 0. 9.
       5    1    3    0  101    0 -6.2126072766E+01  3.9751892338E+01  7.0943459970E+01  1.0244938445E+02  4.8000000000E+00 0. 9.
     -24    2    4    0    0    0 -6.0552906132E+01 -1.8138628936E+01  9.6088388877E+01  1.4805485483E+02  9.3228736248E+01 0. 9.
      -5    1    4    0    0  102  5.7123707342E+01 -4.1390735916E+01  8.6875602337E+01  1.1201214774E+02  4.8000000000E+00 0. 9.
     -15    1    5    0    0    0  1.4187399632E+01 -1.5922315735E+01 -1.9075637413E+01  2.8667753983E+01  1.7770000000E+00 0. 9.
      16    1    5    0    0    0  5.1367871925E+01  3.5699788250E+01  5.2503239684E+01  8.1668374078E+01  0.0000000000E+00 0. 9.
      11    1    7    0    0    0 -5.7658098325E+01 -2.5235363522E+01  1.1307951798E+02  1.2941505810E+02  5.1000000000E-04 0. 9.
     -12    1    7    0    0    0 -2.8948078071E+00  7.0967345863E+00 -1.6991129108E+01  1.8639796737E+01  0.0000000000E+00 0. 9.
#pdf     2   -2  3.8785080028E-01  9.4651766138E-02  1.8512614544E+02  2.2066678044E-01  5.6037483857E-01
</event>
<event>
    12    81  1.000000E+00  2.713473E+02  7.859514E-03  1.087860E-01
       2   -1    0    0  101    0  0.0000000000E+00  0.0000000000E+00  2.6772866177E+02  2.6772866177E+02  0.0000000000E+00 0. 9.
      -2   -1    0    0    0  102  0.0000000000E+00  0.0000000000E+00 -3.2134698355E+02  3.2134698355E+02  0.0000000000E+00 0. 9.
       6    2    1    2  101    0  1.5590546682E+02 -1.3555177683E+02  8.4968795274E+01  2.8505711809E+02  1.7707926366E+02 0. 9.
      -6    2    1    2    0  102 -1.5590546682E+02  1.3555177683E+02 -1.3858711705E+02  3.0401852724E+02  1.7475719471E+02 0. 9.
      24    2    3    0    0    0  4.0387746338E+01 -5.4396010188E+01  9.7424348579E+01  1.4325167739E+02  8.0246142592E+01 0. 9.
       5    1    3    0  101    0  1.1551772048E+02 -8.1155766643E+01 -1.2455553306E+01  1.4180544070E+02  4.8000000000E+00 0. 9.
     -24    2    4    0    0    0 -9.7621577422E+01  1.5912927142E+02 -1.1992585764E+02  2.3825993375E+02  8.6795664038E+01 0. 9.
      -5    1    4    0    0  102 -5.8283889397E+01 -2.3577494594E+01 -1.8661259409E+01  6.5758593486E+01  4.8000000000E+00 0. 9.
      -1    1    5    0    0  103 -1.3112968347E+01 -2.9556613566E+01  3.7510812607E+00  3.2553384693E+01  3.3000000000E-01 0. 9.
       2    1    5    0  103    0  5.3500714685E+01 -2.4839396622E+01  9.3673267319E+01  1.1069829270E+02  3.3000000000E-01 0. 9.
       3    1    7    0  104    0  2.2864767968E+00  7.2510574722E+01 -3.0942598036E+01  7.8871451082E+01  5.0000000000E-01 0. 9.
      -4    1    7    0    0  104 -9.9908054218E+01  8.6618696703E+01 -8.8983259608E+01  1.5938848267E+02  1.5000000000E+00 0. 9.
#pdf     2   -2  2.7319251201E-01  3.2790508526E-01  2.7134732383E+02  3.6065401458E-01  2.8570550335E-01
</event>
<event>
    12    81  1.000000E+00  1.931675E+02  7.829408E-03  1.139252E-01
       2   -1    0    0  101    0  0.0000000000E+00  0.0000000000E+00  4.1540934875E+02  4.1540934875E+02  0.0000000000E+00 0. 9.
      -2   -1    0    0    0  102  0.0000000000E+00  0.0000000000E+00 -9.5250753493E+01  9.5250753493E+01  0.0000000000E+00 0. 9.
       6    2    1    2  101    0  4.3949647607E+01  6.4501711390E+01  2.1981051683E+02  2.9157155960E+02  1.7494361595E+02 0. 9.
      -6    2    1    2    0  102 -4.3949647607E+01 -6.4501711390E+01  1.0034807843E+02  2.1908854265E+02  1.7843208898E+02 0. 9.
      24    2    3    0    0    0  1.2525391943E+01  1.0487358126E+02  1.9275582147E+02  2.3349946421E+02  7.8815224346E+01 0. 9.
       5    1    3    0  101    0  3.1424255664E+01 -4.0371869873E+01  2.7054695366E+01  5.8072095385E+01  4.8000000000E+00 0. 9.
     -24    2    4    0    0    0  3.3350228881E+01 -6.6307642562E+01  8.8166265319E+01  1.4066680546E+02  8.0653075513E+01 0. 9.
      -5    1    4    0    0  102 -7.7299876488E+01  1.8059311718E+00  1.2181813107E+01  7.8421737184E+01  4.8000000000E+00 0. 9.
     -11    1    5    0    0    0  4.2353025629E+01  8.5267688703E+01  1.5165106503E+02  1.7905977505E+02  5.1000000000E-04 0. 9.
      12    1    5    0    0    0 -2.9827633686E+01  1.9605892561E+01  4.1104756440E+01  5.4439689166E+01  0.0000000000E+00 0. 9.
       1    1    7    0  103    0  1.9306319994E+01 -7.9515033868E+01  4.4985132236E+01  9.3376365452E+01  3.3000000000E-01 0. 9.
      -2    1    7    0    0  103  1.4043908887E+01  1.3207391306E+01  4.3181133082E+01  4.7290440009E+01  3.3000000000E-01 0. 9.
#pdf     2   -2  4.2388709056E-01  9.7194646422E-02  1.9316749692E+02  1.7932913617E-01  5.5855257693E-01
</event>
<event>
    12    81  1.000000E+00  2.586011E+02  7.855237E-03  1.094852E-01
       2   -1    0    0  101    0  0.0000000000E+00  0.0000000000E+00  2.6379630433E+02  2.6379630433E+02  0.0000000000E+00 0. 9.
      -2   -1    0    0    0  102  0.0000000000E+00  0.0000000000E+00 -2.9451457545E+02  2.9451457545E+02  0.0000000000E+00 0. 9.
       6    2    1    2  101    0  1.7726419377E+02 -6.7460971804E+01  8.8782977774E+01  2.7384090836E+02  1.7644503064E+02 0. 9.
      -6    2    1    2    0  102 -1.7726419377E+02  6.7460971804E+01 -1.1950124890E+02  2.8446997142E+02  1.7512578063E+02 0. 9.
      24    2    3    0    0    0  7.9296478966E+01 -8.5496874300E+01  1.0008255614E+02  1.7347314762E+02  8.0490793329E+01 0. 9.
       5    1    3    0  101    0  9.7967714808E+01  1.8035902496E+01 -1.1299578367E+01  1.0036776073E+02  4.8000000000E+00 0. 9.
     -24    2    4    0    0    0 -1.6941435461E+02  2.1958986836E+01 -4.0752213287E+01  1.9305607084E+02  8.0165347544E+01 0. 9.
      -5    1    4    0    0  102 -7.8498391584E+00  4.5501984968E+01 -7.8749035609E+01  9.1413900585E+01  4.8000000000E+00 0. 9.
      -1    1    5    0    0  103  4.4869351672E+01  3.1081209194E+00  2.0198089774E+01  4.9305079512E+01  3.3000000000E-01 0. 9.
       2    1    5    0  103    0  3.4427127293E+01 -8.8604995219E+01  7.9884466367E+01  1.2416806811E+02  3.3000000000E-01 0. 9.
      11    1    7    0    0    0 -3.5053510442E+01  3.9111542572E+01 -1.9094025774E+01  5.5884194342E+01  5.1000000000E-04 0. 9.
     -12    1    7    0    0    0 -1.3436084417E+02 -1.7152555736E+01 -2.1658187512E+01  1.3717187650E+02  0.0000000000E+00 0. 9.
#pdf     2   -2  2.6917990238E-01  3.0052507699E-01  2.5860108478E+02  3.6766377177E-01  3.2414102182E-01
</event>
<event>
    12    81  1.000000E+00  1.894504E+02  7.827693E-03  1.142337E-01
       2   -1    0    0  101    0  0.0000000000E+00  0.0000000000E+00  1.7912403455E+02  1.7912403455E+02  0.0000000000E+00 0. 9.
      -2   -1    0    0    0  102  0.0000000000E+00  0.0000000000E+00 -2.0057539130E+02  2.0057539130E+02  0.0000000000E+00 0. 9.
       6    2    1    2  101    0 -2.1222386801E+01  6.8884028320E+01 -4.6769809540E+00  1.8943953000E+02  1.7512870215E+02 0. 9.
      -6    2    1    2    0  102  2.1222386801E+01 -6.8884028320E+01 -1.6774375794E+01  1.9025989585E+02  1.7527706418E+02 0. 9.
      24    2    3    0    0    0  4.9124603945E+01  1.3859788142E+01 -5.7035276196E+01  8.5801712607E+01  3.8776161691E+01 0. 9.
       5    1    3    0  101    0 -7.0346990746E+01  5.5024240178E+01  5.2358295242E+01  1.0363781740E+02  4.8000000000E+00 0. 9.
     -24    2    4    0    0    0  1.9216375561E+01 -1.5466427452E+01  5.5515047561E+01  1.0022509762E+02  7.9716185431E+01 0. 9.
      -5    1    4    0    0  102  2.0060112398E+00 -5.3417600868E+01 -7.2289423355E+01  9.0034798232E+01  4.8000000000E+00 0. 9.
     -13    1    5    0    0    0  1.0802569473E+01  2.2226346309E+01 -2.5059557483E+01  3.5195149705E+01  1.0566000000E-01 0. 9.
      14    1    5    0    0    0  3.8322034471E+01 -8.3665581666E+00 -3.1975718712E+01  5.0606562902E+01  0.0000000000E+00 0. 9.
       3    1    7    0  103    0  1.3822676044E+01  2.6950574703E+01  1.9868455582E-01  3.0293387486E+01  5.0000000000E-01 0. 9.
      -4    1    7    0    0  103  5.3936995173E+00 -4.2417002155E+01  5.5316363005E+01  6.9931710135E+01  1.5000000000E+00 0. 9.
#pdf     2   -2  1.8277962710E-01  2.0466876664E-01  1.8945040204E+02  4.8922997950E-01  4.6337770189E-01
</event>
<event>
    12    81  1.000000E+00  3.040937E+02  7.869659E-03  1.071652E-01
       2   -1    0    0  101    0  0.0000000000E+00  0.0000000000E+00  3.6825466063E+02  3.6825466063E+02  0.0000000000E+00 0. 9.
      -2   -1    0    0    0  102  0.0000000000E+00  0.0000000000E+00 -3.4703842061E+02  3.4703842061E+02  0.0000000000E+00 0. 9.
       6    2    1    2  101    0 -2.3389845569E+02 -9.6094155875E+01 -1.7735848934E+02  3.5522178935E+02  1.7545344546E+02 0. 9.
      -6    2    1    2    0  102  2.3389845569E+02  9.6094155875E+01  1.9857472936E+02  3.6007129188E+02  1.6210131934E+02 0. 9.
      24    2    3    0    0    0 -1.8336101454E+02 -2.1631377736E+01 -6.5224354815E+01  2.1136129300E+02  7.9562563808E+01 0. 9.
       5    1    3    0  101    0 -5.0537441147E+01 -7.4462778139E+01 -1.1213413453E+02  1.4386049636E+02  4.8000000000E+00 0. 9.
     -24    2    4    0    0    0  2.4434311414E+02  8.0220528660E+01  1.4787382636E+02  3.0571428225E+02  7.3862461409E+01 0. 9.
      -5    1    4    0    0  102 -1.0444658450E+01  1.5873627215E+01  5.0700903000E+01  5.4357009632E+01  4.8000000000E+00 0. 9.
     -11    1    5    0    0    0  1.8977774927E-01  2.3199438516E+00 -2.0889953807E+01  2.1019237031E+01  5.1000000000E-04 0. 9.
      12    1    5    0    0    0 -1.8355079229E+02 -2.3951321587E+01 -4.4334401008E+01  1.9034205597E+02  0.0000000000E+00 0. 9.
      15    1    7    0    0    0  1.6174713361E+02  3.0615064620E+01  1.2495310398E+02  2.0667813948E+02  1.7770000000E+00 0. 9.
     -16    1    7    0    0    0  8.2595980527E+01  4.9605464039E+01  2.2920722377E+01  9.9036142776E+01  0.0000000000E+00 0. 9.
#pdf     2   -2  3.7577006186E-01  3.5412083736E-01  3.0409365168E+02  2.2238611044E-01  2.4879773670E-01
</event>
<event>
    12    81  1.000000E+00  2.110655E+02  7.837235E-03  1.125390E-01
       1   -1    0    0  101    0  0.0000000000E+00  0.0000000000E+00  3.6230277139E+02  3.6230277139E+02  0.0000000000E+00 0. 9.
      -1   -1    0    0    0  102  0.0000000000E+00  0.0000000000E+00 -1.2373790500E+02  1.2373790500E+02  0.0000000000E+00 0. 9.
       6    2    1    2  101    0  9.2540756869E+01 -7.3415543479E+01  9.9835114512E+01  2.3320984776E+02  1.7454555077E+02 0. 9.
      -6    2    1    2    0  102 -9.2540756869E+01  7.3415543479E+01  1.3872975188E+02  2.5283082864E+02  1.7528220146E+02 0. 9.
      24    2    3    0    0    0  3.1904453205E+01 -8.8980392560E+01  1.0992624525E+01  1.2442081395E+02  8.0151710876E+01 0. 9.
       5    1    3    0  101    0  6.0636303664E+01  1.5564849081E+01  8.8842489987E+01  1.0878903380E+02  4.8000000000E+00 0. 9.
     -24    2    4    0    0    0 -2.3694671110E+01 -2.4335163591E+01  6.0588089004E+01  1.0991776509E+02  8.5190145717E+01 0. 9.
      -5    1    4    0    0  102 -6.8846085759E+01  9.7750707070E+01  7.8141662873E+01  1.4291306355E+02  4.8000000000E+00 0. 9.
     -15    1    5    0    0    0 -1.9801767543E+01 -1.1751140868E-01  8.3822775347E+00  2.1576471270E+01  1.7770000000E+00 0. 9.
      16    1    5    0    0    0  5.1706220748E+01 -8.8862881151E+01  2.6103469906E+00  1.0284434268E+02  0.0000000000E+00 0. 9.
       1    1    7    0  103    0 -1.0397821225E+01  1.6121619135E+01 -1.4189351604E+01  2.3863526326E+01  3.3000000000E-01 0. 9.
      -2    1    7    0    0  103 -1.3296849885E+01 -4.0456782726E+01  7.4777440608E+01  8.6054238764E+01  3.3000000000E-01 0. 9.
#pdf     1   -1  3.6969670550E-01  1.2626316837E-01  2.1106547190E+02  8.0079814167E-02  2.9882870858E-01
</event>
<event>
    12    82  1.000000E+00  1.861829E+02  7.826159E-03  1.145114E-01
      21   -1    0    0  101  102  0.0000000000E+00  0.0000000000E+00  4.9094208936E+02  4.9094208936E+02  0.0000000000E+00 0. 9.
      21   -1    0    0  103  101  0.0000000000E+00  0.0000000000E+00 -7.1928745126E+01  7.1928745126E+01  0.0000000000E+00 0. 9.
       6    2    1    2  103    0 -6.3211414214E+01  1.0663875052E+01  1.7132384419E+02  2.5298986541E+02  1.7476444517E+02 0. 9.
      -6    2    1    2    0  102  6.3211414214E+01 -1.0663875052E+01  2.4768950004E+02  3.0988096908E+02  1.7483342199E+02 0. 9.
      24    2    3    0    0    0 -7.5816565332E+01  4.0287782487E+01  5.1681325458E+01  1.2899858340E+02  8.1230647670E+01 0. 9.
       5    1    3    0  103    0  1.2605151118E+01 -2.9623907435E+01  1.1964251874E+02  1.2399128202E+02  4.8000000000E+00 0. 9.
     -24    2    4    0    0    0 -3.2586618998E+01 -1.6684454705E+01  8.3554876519E+01  1.1967916786E+02  7.7468878028E+01 0. 9.
      -5    1    4    0    0  102  9.5798033212E+01  6.0205796530E+00  1.6413462353E+02  1.9020180122E+02  4.8000000000E+00 0. 9.
      -1    1    5    0    0  104 -1.8899407252E+01  5.0307541305E+01  3.6740185292E+00  5.3866906527E+01  3.3000000000E-01 0. 9.
       2    1    5    0  104    0 -5.6917158080E+01 -1.0019758818E+01  4.8007306929E+01  7.5131676869E+01  3.3000000000E-01 0. 9.
       3    1    7    0  105    0  1.2414473952E+01  1.7346784792E+01  3.3385584093E+00  2.1596899740E+01  5.0000000000E-01 0. 9.
      -4    1    7    0    0  105 -4.5001092950E+01 -3.4031239497E+01  8.0216318109E+01  9.8082268119E+01  1.5000000000E+00 0. 9.
#pdf    21   21  5.0096131568E-01  7.3396678700E-02  1.8618289258E+02  6.0776584530E-03  1.1335534896E+00
</event>
<event>
    12    82  1.000000E+00  1.795507E+02  7.822962E-03  1.150947E-01
      21   -1    0    0  101  102  0.0000000000E+00  0.0000000000E+00  1.9682400818E+02  1.9682400818E+02  0.0000000000E+00 0. 9.
      21   -1    0    0  102  103  0.0000000000E+00  0.0000000000E+00 -1.6575500910E+02  1.6575500910E+02  0.0000000000E+00 0. 9.
      -6    2    1    2    0  103  4.5618148871E+00 -4.1107891728E+01  3.5283843439E+01  1.8326946680E+02  1.7502022436E+02 0. 9.
       6    2    1    2  101    0 -4.5618148871E+00  4.1107891728E+01 -4.2148443578E+00  1.7930955049E+02  1.7442328132E+02 0. 9.
     -24    2    3    0    0    0 -5.9046291323E+01 -3.9667759989E+01  4.9241036313E+01  1.1795554494E+02  8.0180017610E+01 0. 9.
      -5    1    3    0    0  103  6.3608106210E+01 -1.4401317391E+00 -1.3957192875E+01  6.5313921854E+01  4.8000000000E+00 0. 9.
      24    2    4    0    0    0  7.6236375603E+00 -2.6223629755E+01  4.2686156236E+01  9.6214647560E+01  8.1788458010E+01 0. 9.
       5    1    4    0  101    0 -1.2185452447E+01  6.7331521483E+01 -4.6901000594E+01  8.3094902932E+01  4.8000000000E+00 0. 9.
       1    1    5    0  104    0 -2.1786734196E+01 -5.7327869896E+01  1.2207513922E+01  6.2532221694E+01  3.3000000000E-01 0. 9.
      -2    1    5    0    0  104 -3.7259557127E+01  1.7660109907E+01  3.7033522391E+01  5.5423323249E+01  3.3000000000E-01 0. 9.
      -3    1    7    0    0  105  2.3423718657E+01 -4.1770929840E+00 -1.7925327597E+01  2.9794061002E+01  5.0000000000E-01 0. 9.
       4    1    7    0  105    0 -1.5800081097E+01 -2.2046536771E+01  6.0611483833E+01  6.6420586558E+01  1.5000000000E+00 0. 9.
#pdf    21   21  2.0084082468E-01  1.6913776439E-01  1.7955068621E+02  2.0080925368E-01  2.9235139391E-01
</event>
<event>
    12    81  1.000000E+00  1.786161E+02  7.822502E-03  1.151792E-01
       2   -1    0    0  101    0  0.0000000000E+00  0.0000000000E+00  9.9626118746E+01  9.9626118746E+01  0.0000000000E+00 0. 9.
      -2   -1    0    0    0  102  0.0000000000E+00  0.0000000000E+00 -3.4154323798E+02  3.4154323798E+02  0.0000000000E+00 0. 9.
       6    2    1    2  101    0 -3.6183811634E+01 -2.4320160983E+01 -6.5884309456E+01  1.9041450220E+02  1.7325184548E+02 0. 9.
      -6    2    1    2    0  102  3.6183811634E+01  2.4320160983E+01 -1.7603280978E+02  2.5075485453E+02  1.7317536919E+02 0. 9.
      24    2    3    0    0    0  1.3516329660E+01 -5.4729000224E+01  5.0612514107E+00  9.8484560640E+01  8.0595519637E+01 0. 9.
       5    1    3    0  101    0 -4.9700141294E+01  3.0408839241E+01 -7.0945560866E+01  9.1929941560E+01  4.8000000000E+00 0. 9.
     -24    2    4    0    0    0  5.7105879154E+01  6.8128334270E+01 -1.5902028389E+02  1.9908905352E+02  8.0289782547E+01 0. 9.
      -5    1    4    0    0  102 -2.0922067519E+01 -4.3808173287E+01 -1.7012525893E+01  5.1665801003E+01  4.8000000000E+00 0. 9.
      -3    1    5    0    0  103 -5.4675447143E+00 -6.2691755739E+01 -1.9985282075E+01  6.6028870825E+01  5.0000000000E-01 0. 9.
       4    1    5    0  103    0  1.8983874374E+01  7.9627555151E+00  2.5046533486E+01  3.2455689814E+01  1.5000000000E+00 0. 9.
      11    1    7    0    0    0  6.4548742738E+01  6.8152683735E+01 -9.1251627885E+01  1.3091290265E+02  5.1000000000E-04 0. 9.
     -12    1    7    0    0    0 -7.4428635839E+00 -2.4349465032E-02 -6.7768656002E+01  6.8176150871E+01  0.0000000000E+00 0. 9.
#pdf     2   -2  1.0165930484E-01  3.4851350814E-01  1.7861605102E+02  5.5737048752E-01  2.7053375901E-01
</event>
<event>
    12    81  1.000000E+00  2.842543E+02  7.863648E-03  1.081191E-01
       2   -1    0    0  101    0  0.0000000000E+00  0.0000000000E+00  3.4306037419E+02  3.4306037419E+02  0.0000000000E+00 0. 9.
      -2   -1    0    0    0  102  0.0000000000E+00  0.0000000000E+00 -2.4458305190E+02  2.4458305190E+02  0.0000000000E+00 0. 9.
       6    2    1    2  101    0 -2.1544470919E+02 -6.6565016359E+01  1.0600191727E+02  3.0458253465E+02  1.7517645340E+02 0. 9.
      -6    2    1    2    0  102  2.1544470919E+02  6.6565016359E+01 -7.5245949794E+00  2.8306089144E+02  1.7093719494E+02 0. 9.
      24    2    3    0    0    0 -5.5653178421E+01  2.3292797661E+01  2.6950271002E+01  1.0488285307E+02  8.1450997963E+01 0. 9.
       5    1    3    0  101    0 -1.5979153077E+02 -8.9857814020E+01  7.9051646266E+01  1.9969968158E+02  4.8000000000E+00 0. 9.
     -24    2    4    0    0    0  7.2096034033E+01 -2.1759046092E+01  2.2628026208E+01  1.1194045654E+02  7.9670220475E+01 0. 9.
      -5    1    4    0    0  102  1.4334867515E+02  8.8324062452E+01 -3.0152621187E+01  1.7112043490E+02  4.8000000000E+00 0. 9.
     -11    1    5    0    0    0 -5.3186814676E+01 -2.0846495578E+01  1.3996631913E+01  5.8815978598E+01  5.1000000000E-04 0. 9.
      12    1    5    0    0    0 -2.4663637454E+00  4.4139293239E+01  1.2953639090E+01  4.6066874470E+01  0.0000000000E+00 0. 9.
       1    1    7    0  103    0 -1.0494271324E+00 -9.7012492223E+00 -2.2933617298E+01  2.4925393400E+01  3.3000000000E-01 0. 9.
      -2    1    7    0    0  103  7.3145461165E+01 -1.2057796870E+01  4.5561643506E+01  8.7015063141E+01  3.3000000000E-01 0. 9.
#pdf     2   -2  3.5006160632E-01  2.4957454275E-01  2.8425425474E+02  2.5567333300E-01  3.9209377289E-01
</event>
<event>
    12    81  1.000000E+00  2.015984E+02  7.833179E-03  1.132526E-01
       2   -1    0    0  101    0  0.0000000000E+00  0.0000000000E+00  9.2281328971E+01  9.2281328971E+01  0.0000000000E+00 0. 9.
      -2   -1    0    0    0  102  0.0000000000E+00  0.0000000000E+00 -5.0109375881E+02  5.0109375881E+02  0.0000000000E+00 0. 9.
       6    2    1    2  101    0 -4.1808020164E+00  9.9938646788E+01 -1.0125721866E+02  2.2569432893E+02  1.7515619759E+02 0. 9.
      -6    2    1    2    0  102  4.1808020164E+00 -9.9938646788E+01 -3.0755521118E+02  3.6768075885E+02  1.7491060653E+02 0. 9.
      24    2    3    0    0    0 -2.0232164805E+01  8.6310826737E+01 -1.3757613526E+02  1.8343953713E+02  8.2849088627E+01 0. 9.
       5    1    3    0  101    0  1.6051362789E+01  1.3627820052E+01  3.6318916602E+01  4.2254791798E+01  4.8000000000E+00 0. 9.
     -24    2    4    0    0    0  4.8513889370E+01 -8.2973967428E+01 -1.1086444360E+02  1.6528628997E+02  7.6094389182E+01 0. 9.
      -5    1    4    0    0  102 -4.4333087354E+01 -1.6964679360E+01 -1.9669076759E+02  2.0239446888E+02  4.8000000000E+00 0. 9.
      -3    1    5    0    0  103  2.7372528207E+01  5.3873594939E+01 -4.9152520822E+01  7.7896340319E+01  5.0000000000E-01 0. 9.
       4    1    5    0  103    0 -4.7604693012E+01  3.2437231798E+01 -8.8423614438E+01  1.0554319681E+02  1.5000000000E+00 0. 9.
       1    1    7    0  104    0 -1.6064156560E+01 -2.9970640820E+01 -5.5406294570E+01  6.5009713237E+01  3.3000000000E-01 0. 9.
      -2    1    7    0    0  104  6.4578045930E+01 -5.3003326608E+01 -5.5458149026E+01  1.0027657673E+02  3.3000000000E-01 0. 9.
#pdf     2   -2  9.4164621399E-02  5.1132016205E-01  2.0159841057E+02  5.5951932698E-01  1.0046259080E-01
</event>
<event>
    12    81  1.000000E+00  1.814820E+02  7.823905E-03  1.149221E-01
       2   -1    0    0  101    0  0.0000000000E+00  0.0000000000E+00  2.1522676701E+02  2.1522676701E+02  0.0000000000E+00 0. 9.
      -2   -1    0    0    0  102  0.0000000000E+00  0.0000000000E+00 -2.0807965149E+02  2.0807965149E+02  0.0000000000E+00 0. 9.
       6    2    1    2  101    0 -5.0276376411E+01 -4.7795856080E+00  1.1243734609E+02  2.1330002516E+02  1.7408097390E+02 0. 9.
      -6    2    1    2    0  102  5.0276376411E+01  4.7795856080E+00 -1.0529023057E+02  2.1000639333E+02  1.7454539273E+02 0. 9.
      24    2    3    0    0    0 -9.4578788023E+01  2.4116483058E+01  6.7055890102E+01  1.4344157538E+02  8.0945915587E+01 0. 9.
       5    1    3    0  101    0  4.4302411612E+01 -2.8896068666E+01  4.5381455986E+01  6.9858449785E+01  4.8000000000E+00 0. 9.
     -24    2    4    0    0    0  5.7051505212E+01  4.4847039255E+01 -1.2089113874E+01  1.0821842074E+02  7.9365916712E+01 0. 9.
      -5    1    4    0    0  102 -6.7751288015E+00 -4.0067453647E+01 -9.3201116697E+01  1.0178797260E+02  4.8000000000E+00 0. 9.
      -3    1    5    0    0  103 -9.5890644299E+01  1.3476887093E+01  8.0680331427E+01  1.2604050154E+02  5.0000000000E-01 0. 9.
       4    1    5    0  103    0  1.3118562766E+00  1.0639595966E+01 -1.3624441325E+01  1.7401073835E+01  1.5000000000E+00 0. 9.
      11    1    7    0    0    0  1.5201824170E+01  6.0654407845E+01 -1.0856737174E+01  6.3465907316E+01  5.1000000000E-04 0. 9.
     -12    1    7    0    0    0  4.1849681043E+01 -1.5807368590E+01 -1.2323766997E+00  4.4752513420E+01  0.0000000000E+00 0. 9.
#pdf     2   -2  2.1961915001E-01  2.1232617499E-01  1.8148195024E+02  4.4571709251E-01  4.5505709155E-01
</event>
<event>
    12    81  1.000000E+00  1.858835E+02  7.826017E-03  1.145372E-01
       2   -1    0    0  101    0  0.0000000000E+00  0.0000000000E+00  3.3569950410E+02  3.3569950410E+02  0.0000000000E+00 0. 9.
      -2   -1    0    0    0  102  0.0000000000E+00  0.0000000000E+00 -1.0483042947E+02  1.0483042947E+02  0.0000000000E+00 0. 9.
       6    2    1    2  101    0  1.3602390150E+01  6.3376410940E+01  8.4959665680E+01  2.0323983573E+02  1.7287767800E+02 0. 9.
      -6    2    1    2    0  102 -1.3602390150E+01 -6.3376410940E+01  1.4590940895E+02  2.3729009785E+02  1.7554327226E+02 0. 9.
      24    2    3    0    0    0 -1.7271979353E+01  3.4433500602E+01  1.1933581605E+02  1.4850704422E+02  7.9557010736E+01 0. 9.
       5    1    3    0  101    0  3.0874369503E+01  2.8942910337E+01 -3.4376150372E+01  5.4732791500E+01  4.8000000000E+00 0. 9.
     -24    2    4    0    0    0 -1.0304823626E+00  1.8681667303E+01  1.6873835700E+01  8.3781791123E+01  7.9903664530E+01 0. 9.
      -5    1    4    0    0  102 -1.2571907787E+01 -8.2058078243E+01  1.2903557325E+02  1.5350830673E+02  4.8000000000E+00 0. 9.
     -15    1    5    0    0    0 -1.1463695825E+01 -2.4151565104E+01  2.1626319499E+01  3.4432104830E+01  1.7770000000E+00 0. 9.
      16    1    5    0    0    0 -5.8082835279E+00  5.8585065706E+01  9.7709496553E+01  1.1407493939E+02  0.0000000000E+00 0. 9.
       3    1    7    0  103    0  1.1952888317E+01  2.1037608103E+01  4.5884593151E+01  5.1875797656E+01  5.0000000000E-01 0. 9.
      -4    1    7    0    0  103 -1.2983370679E+01 -2.3559407995E+00 -2.9010757451E+01  3.1905993467E+01  1.5000000000E+00 0. 9.
#pdf     2   -2  3.4255051439E-01  1.0696982599E-01  1.8588345939E+02  2.7715502889E-01  5.5391977809E-01
</event>
<event>
    12    81  1.000000E+00  1.870823E+02  7.826584E-03  1.144344E-01
       2   -1    0    0  101    0  0.0000000000E+00  0.0000000000E+00  2.8846749165E+02  2.8846749165E+02  0.0000000000E+00 0. 9.
      -2   -1    0    0    0  102  0.0000000000E+00  0.0000000000E+00 -1.2298207789E+02  1.2298207789E+02  0.0000000000E+00 0. 9.
       6    2    1    2  101    0  6.6626181606E+01  5.9988184423E-01  5.8860849958E+01  1.9604005072E+02  1.7472176137E+02 0. 9.
      -6    2    1    2    0  102 -6.6626181606E+01 -5.9988184423E-01  1.0662456380E+02  2.1540951882E+02  1.7490870550E+02 0. 9.
      24    2    3    0    0    0  9.7056777564E+01  1.0285743152E+01  8.6322637733E+01  1.5364869703E+02  8.1427941956E+01 0. 9.
       5    1    3    0  101    0 -3.0430595958E+01 -9.6858613080E+00 -2.7461787776E+01  4.2391353688E+01  4.8000000000E+00 0. 9.
     -24    2    4    0    0    0 -2.1267980112E+00  4.3063047905E+01  1.0186771913E+02  1.3722838625E+02  8.1213597564E+01 0. 9.
      -5    1    4    0    0  102 -6.4499383594E+01 -4.3662929750E+01  4.7568446759E+00  7.8181132568E+01  4.8000000000E+00 0. 9.
      -3    1    5    0    0  103  2.7328971661E+01  1.8010529545E-01  7.8043400816E+01  8.2691762231E+01  5.0000000000E-01 0. 9.
       4    1    5    0  103    0  6.9727805902E+01  1.0105637857E+01  8.2792369177E+00  7.0956934801E+01  1.5000000000E+00 0. 9.
       3    1    7    0  104    0 -3.4539017753E+01  4.6526285379E+01  7.6094127038E+01  9.5646250048E+01  5.0000000000E-01 0. 9.
      -4    1    7    0    0  104  3.2412219742E+01 -3.4632374734E+00  2.5773592088E+01  4.1582136206E+01  1.5000000000E+00 0. 9.
#pdf     2   -2  2.9435458332E-01  1.2549191622E-01  1.8708228807E+02  3.4240557060E-01  5.4220282475E-01
</event>
<event>
    12    81  1.000000E+00  1.749352E+02  7.820668E-03  1.155172E-01
       2   -1    0    0  101    0  0.0000000000E+00  0.0000000000E+00  2.2237037990E+02  2.2237037990E+02  0.0000000000E+00 0. 9.
      -2   -1    0    0    0  102  0.0000000000E+00  0.0000000000E+00 -1.5075237505E+02  1.5075237505E+02  0.0000000000E+00 0. 9.
       6    2    1    2  101    0 -1.1912964404E+00  2.4389388572E+01 -1.9474612151E+01  1.7491131463E+02  1.7210010461E+02 0. 9.
      -6    2    1    2    0  102  1.1912964404E+00 -2.4389388572E+01  9.1092616998E+01  1.9821144032E+02  1.7433774331E+02 0. 9.
      24    2    3    0    0    0 -1.7270027913E+01 -4.9734914019E+01 -2.2856677562E+01  9.8836245084E+01  8.0463408432E+01 0. 9.
       5    1    3    0  101    0  1.6078731473E+01  7.4124302591E+01  3.3820654111E+00  7.6075069549E+01  4.8000000000E+00 0. 9.
     -24    2    4    0    0    0  5.3120017426E+01 -5.8883760359E+01  5.9584810297E+01  1.2819547335E+02  8.1207735369E+01 0. 9.
      -5    1    4    0    0  102 -5.1928720985E+01  3.4494371787E+01  3.1507806701E+01  7.0015966974E+01  4.8000000000E+00 0. 9.
      -1    1    5    0    0  103 -3.5102920301E+01  3.7067785721E+00 -2.3652369426E+01  4.2491160263E+01  3.3000000000E-01 0. 9.
       2    1    5    0  103    0  1.7832892388E+01 -5.3441692591E+01  7.9569186366E-01  5.6345084821E+01  3.3000000000E-01 0. 9.
      15    1    7    0    0    0 -2.0104043477E+01 -1.2141351927E+00  1.2498017041E+01  2.3769830613E+01  1.7770000000E+00 0. 9.
     -16    1    7    0    0    0  7.3224060903E+01 -5.7669625166E+01  4.7086793255E+01  1.0442564274E+02  0.0000000000E+00 0. 9.
#pdf     2   -2  2.2690855092E-01  1.5382895414E-01  1.7493515609E+02  4.3731485340E-01  5.2082967312E-01
</event>
<event>
    12    81  1.000000E+00  2.282241E+02  7.844153E-03  1.113439E-01
       2   -1    0    0  101    0  0.0000000000E+00  0.0000000000E+00  3.5726257152E+02  3.5726257152E+02  0.0000000000E+00 0. 9.
      -2   -1    0    0    0  102  0.0000000000E+00  0.0000000000E+00 -1.5374366750E+02  1.5374366750E+02  0.0000000000E+00 0. 9.
       6    2    1    2  101    0 -6.4916260652E+01  1.3256419647E+02  4.3913464091E+01  2.3301841779E+02  1.7487653821E+02 0. 9.
      -6    2    1    2    0  102  6.4916260652E+01 -1.3256419647E+02  1.5960543993E+02  2.7798782123E+02  1.7325110451E+02 0. 9.
      24    2    3    0    0    0 -6.2974318872E+01  1.4014205259E+02  8.2840750759E+01  1.9302380954E+02  8.2401707033E+01 0. 9.
       5    1    3    0  101    0 -1.9419417797E+00 -7.5778561226E+00 -3.8927286667E+01  3.9994608244E+01  4.8000000000E+00 0. 9.
     -24    2    4    0    0    0  5.4984108875E+01 -1.6480084802E+02  1.2282540157E+02  2.2785140169E+02  8.1532878301E+01 0. 9.
      -5    1    4    0    0  102  9.9321517768E+00  3.2236651552E+01  3.6780038363E+01  5.0136419539E+01  4.8000000000E+00 0. 9.
     -13    1    5    0    0    0  1.7548353209E+01  1.0155735649E+01  2.9011510661E+00  2.0481980091E+01  1.0566000000E-01 0. 9.
      14    1    5    0    0    0 -8.0522672081E+01  1.2998631694E+02  7.9939599692E+01  1.7254182945E+02  0.0000000000E+00 0. 9.
       3    1    7    0  103    0  4.7802519843E+01 -1.6322844907E+02  8.6609870550E+01  1.9086677858E+02  5.0000000000E-01 0. 9.
      -4    1    7    0    0  103  7.1815890320E+00 -1.5723989517E+00  3.6215531020E+01  3.6984623110E+01  1.5000000000E+00 0. 9.
#pdf     2   -2  3.6455364441E-01  1.5688129336E-01  2.2822414749E+02  2.4332049981E-01  5.1160162968E-01
</event>
<event>
    12    81  1.000000E+00  2.029015E+02  7.833749E-03  1.131519E-01
       1   -1    0    0  101    0  0.0000000000E+00  0.0000000000E+00  2.0523998483E+02  2.0523998483E+02  0.0000000000E+00 0. 9.
      -1   -1    0    0    0  102  0.0000000000E+00  0.0000000000E+00 -2.1094730190E+02  2.1094730190E+02  0.0000000000E+00 0. 9.
       6    2    1    2  101    0  3.6432619754E+01  9.5985057453E+01  4.3277513697E+01  2.0658503150E+02  1.7396541326E+02 0. 9.
      -6    2    1    2    0  102 -3.6432619754E+01 -9.5985057453E+01 -4.8984830770E+01  2.0960225523E+02  1.7604864304E+02 0. 9.
      24    2    3    0    0    0  3.2167519843E+01 -1.7834463130E+01  1.0496123968E+01  8.7964907341E+01  7.9213880711E+01 0. 9.
       5    1    3    0  101    0  4.2650999115E+00  1.1381952058E+02  3.2781389729E+01  1.1862012416E+02  4.8000000000E+00 0. 9.
     -24    2    4    0    0    0  5.4035768255E-01 -5.9477003363E+00  2.6261948914E+01  8.6480995530E+01  8.2180323079E+01 0. 9.
      -5    1    4    0    0  102 -3.6972977437E+01 -9.0037357117E+01 -7.5246779684E+01  1.2312125970E+02  4.8000000000E+00 0. 9.
      -1    1    5    0    0  103  4.7092408533E+01 -2.9463960754E+01 -1.3697199114E+01  5.7214876460E+01  3.3000000000E-01 0. 9.
       4    1    5    0  103    0 -1.4924888690E+01  1.1629497624E+01  2.4193323083E+01  3.0750030881E+01  1.5000000000E+00 0. 9.
       1    1    7    0  104    0  2.9729500324E+01  1.9716741725E+01 -5.7392435862E+00  3.6133653437E+01  3.3000000000E-01 0. 9.
      -2    1    7    0    0  104 -2.9189142641E+01 -2.5664442061E+01  3.2001192500E+01  5.0347342093E+01  3.3000000000E-01 0. 9.
#pdf     1   -1  2.0942855595E-01  2.1525234888E-01  2.0290148324E+02  2.0649786837E-01  2.0063057995E-01
</event>
<event>
    12    81  1.000000E+00  2.027557E+02  7.833685E-03  1.131631E-01
       2   -1    0    0  101    0  0.0000000000E+00  0.0000000000E+00  3.2714374848E+02  3.2714374848E+02  0.0000000000E+00 0. 9.
      -2   -1    0    0    0  102  0.0000000000E+00  0.0000000000E+00 -1.2697055475E+02  1.2697055475E+02  0.0000000000E+00 0. 9.
       6    2    1    2  101    0 -1.0095958352E+02 -1.0944089536E+02  1.2382320276E+02  2.1540826745E+02  9.4331272988E+01 0. 9.
      -6    2    1    2    0  102  1.0095958352E+02  1.0944089536E+02  7.6349990973E+01  2.3870603577E+02  1.7023837202E+02 0. 9.
      24    2    3    0    0    0 -8.5668801856E+01 -8.9850518846E+01  8.4603619353E+01  1.6873057922E+02  7.6811305218E+01 0. 9.
       5    1    3    0  101    0 -1.5290781664E+01 -1.9590376517E+01  3.9219583405E+01  4.6677688230E+01  4.8000000000E+00 0. 9.
     -24    2    4    0    0    0  2.2813313656E+01 -7.1007805335E+00  4.2751046580E+01  9.4342845243E+01  8.0635303067E+01 0. 9.
      -5    1    4    0    0  102  7.8146269865E+01  1.1654167590E+02  3.3598944393E+01  1.4436319053E+02  4.8000000000E+00 0. 9.
      -3    1    5    0    0  103 -6.1291049757E+01 -4.6313170544E+01  9.0218880422E+01  1.1849556503E+02  5.0000000000E-01 0. 9.
       4    1    5    0  103    0 -2.4377752098E+01 -4.3537348302E+01 -5.6152610696E+00  5.0235014197E+01  1.5000000000E+00 0. 9.
       1    1    7    0  104    0  4.7088599809E+01  5.5476484384E+00  4.6856966257E+01  6.6661809321E+01  3.3000000000E-01 0. 9.
      -2    1    7    0    0  104 -2.4275286154E+01 -1.2648428972E+01 -4.1059196768E+00  2.7681035922E+01  3.3000000000E-01 0. 9.
#pdf     2   -2  3.3382015151E-01  1.2956179056E-01  2.0275574781E+02  2.8614214904E-01  5.3768643422E-01
</event>
<event>
    12    81  1.000000E+00  1.758072E+02  7.821106E-03  1.154363E-01
       2   -1    0    0  101    0  0.0000000000E+00  0.0000000000E+00  5.4548513396E+01  5.4548513396E+01  0.0000000000E+00 0. 9.
      -2   -1    0    0    0  102  0.0000000000E+00  0.0000000000E+00 -5.6908923444E+02  5.6908923444E+02  0.0000000000E+00 0. 9.
       6    2    1    2  101    0  1.5867998641E+01 -1.9788002960E+01 -2.7914534951E+02  3.3035807295E+02  1.7484556548E+02 0. 9.
      -6    2    1    2    0  102 -1.5867998641E+01  1.9788002960E+01 -2.3539537154E+02  2.9327967489E+02  1.7308560980E+02 0. 9.
      24    2    3    0    0    0 -1.6435751412E+01  4.7198163821E+01 -5.1303350187E+01  9.0638037360E+01  5.5546552400E+01 0. 9.
       5    1    3    0  101    0  3.2303750053E+01 -6.6986166781E+01 -2.2784199932E+02  2.3972003559E+02  4.8000000000E+00 0. 9.
     -24    2    4    0    0    0  1.3835767927E+00 -2.6644274504E+01 -4.0288910403E+01  9.1926392270E+01  7.8201238134E+01 0. 9.
      -5    1    4    0    0  102 -1.7251575434E+01  4.6432277464E+01 -1.9510646114E+02  2.0135328262E+02  4.8000000000E+00 0. 9.
     -15    1    5    0    0    0 -3.1875874348E+01  1.2420700288E+01 -3.5801868649E+01  4.9550748621E+01  1.7770000000E+00 0. 9.
      16    1    5    0    0    0  1.5440122936E+01  3.4777463534E+01 -1.5501481538E+01  4.1087288740E+01  0.0000000000E+00 0. 9.
       1    1    7    0  103    0 -2.7773107027E+01  1.5123178164E+01 -1.3690805829E+01  3.4461617141E+01  3.3000000000E-01 0. 9.
      -2    1    7    0    0  103  2.9156683820E+01 -4.1767452668E+01 -2.6598104574E+01  5.7464775129E+01  3.3000000000E-01 0. 9.
#pdf     2   -2  5.5661748364E-02  5.8070330045E-01  1.7580716278E+02  5.7956218736E-01  5.9024096471E-02
</event>
<event>
    12    81  1.000000E+00  1.865166E+02  7.826317E-03  1.144828E-01
       2   -1    0    0  101    0  0.0000000000E+00  0.0000000000E+00  7.5567247035E+01  7.5567247035E+01  0.0000000000E+00 0. 9.
      -2   -1    0    0    0  102  0.0000000000E+00  0.0000000000E+00 -4.9026606857E+02  4.9026606857E+02  0.0000000000E+00 0. 9.
       6    2    1    2  101    0  5.6116049982E+01 -3.4239670406E+01 -2.7572548861E+02  3.3206624958E+02  1.7298000737E+02 0. 9.
      -6    2    1    2    0  102 -5.6116049982E+01  3.4239670406E+01 -1.3897333293E+02  2.3376706602E+02  1.7610249230E+02 0. 9.
      24    2    3    0    0    0  6.0795042757E+01  3.3600775431E+01 -2.2463860270E+02  2.4687746525E+02  7.5239163285E+01 0. 9.
       5    1    3    0  101    0 -4.6789927753E+00 -6.7840445836E+01 -5.1086885903E+01  8.5188784332E+01  4.8000000000E+00 0. 9.
     -24    2    4    0    0    0 -9.5917245845E+01  6.0838296515E+01 -1.1025637191E+02  1.7773737788E+02  8.0825067744E+01 0. 9.
      -5    1    4    0    0  102  3.9801195863E+01 -2.6598626109E+01 -2.8716961024E+01  5.6029688143E+01  4.8000000000E+00 0. 9.
      -1    1    5    0    0  103  4.4654560918E+00  4.4700278149E+01 -1.0293972976E+02  1.1231541313E+02  3.3000000000E-01 0. 9.
       2    1    5    0  103    0  5.6329586665E+01 -1.1099502718E+01 -1.2169887295E+02  1.3456205212E+02  3.3000000000E-01 0. 9.
       1    1    7    0  104    0 -4.9510736248E+00  3.0023163661E+00 -5.7378088286E+01  5.7670451263E+01  3.3000000000E-01 0. 9.
      -2    1    7    0    0  104 -9.0966172220E+01  5.7835980149E+01 -5.2878283620E+01  1.2006692661E+02  3.3000000000E-01 0. 9.
#pdf     2   -2  7.7109435750E-02  5.0027149854E-01  1.8651662518E+02  5.6832064286E-01  1.1009490563E-01
</event>
<event>
    12    81  1.000000E+00  2.029011E+02  7.833748E-03  1.131519E-01
       2   -1    0    0  101    0  0.0000000000E+00  0.0000000000E+00  1.6291822690E+02  1.6291822690E+02  0.0000000000E+00 0. 9.
      -2   -1    0    0    0  102  0.0000000000E+00  0.0000000000E+00 -3.0069011005E+02  3.0069011005E+02  0.0000000000E+00 0. 9.
       6    2    1    2  101    0  8.2496163623E+01 -6.2210463646E+01 -1.6150925086E+02  2.5937313540E+02  1.7468092756E+02 0. 9.
      -6    2    1    2    0  102 -8.2496163623E+01  6.2210463646E+01  2.3737367716E+01  2.0423520155E+02  1.7456459012E+02 0. 9.
      24    2    3    0    0    0  4.9297118022E+01 -8.1470378020E+01 -1.7876620788E+02  2.1701792915E+02  7.7921730954E+01 0. 9.
       5    1    3    0  101    0  3.3199045601E+01  1.9259914373E+01  1.7256957017E+01  4.2355206244E+01  4.8000000000E+00 0. 9.
     -24    2    4    0    0    0  4.2156304808E+00  7.9389765797E+01 -4.7251043157E-01  1.1245708946E+02  7.9535320763E+01 0. 9.
      -5    1    4    0    0  102 -8.6711794104E+01 -1.7179302151E+01  2.4209878148E+01  9.1778112091E+01  4.8000000000E+00 0. 9.
      -3    1    5    0    0  103  2.8410164798E+01  6.4770194365E+00 -2.3880068838E+01  3.7677538831E+01  5.0000000000E-01 0. 9.
       4    1    5    0  103    0  2.0886953224E+01 -8.7947397456E+01 -1.5488613904E+02  1.7934039032E+02  1.5000000000E+00 0. 9.
      15    1    7    0    0    0 -1.6889069263E+01  5.7521341222E+00 -2.6114231753E+01  3.1677097982E+01  1.7770000000E+00 0. 9.
     -16    1    7    0    0    0  2.1104699744E+01  7.3637631675E+01  2.5641721321E+01  8.0779991473E+01  0.0000000000E+00 0. 9.
#pdf     2   -2  1.6624308867E-01  3.0682664290E-01  2.0290113378E+02  5.0516035690E-01  3.2266007676E-01
</event>
<event>
    12    81  1.000000E+00  1.960594E+02  7.830719E-03  1.136903E-01
       2   -1    0    0  101    0  0.0000000000E+00  0.0000000000E+00  3.6728272210E+02  3.6728272210E+02  0.0000000000E+00 0. 9.
      -2   -1    0    0    0  102  0.0000000000E+00  0.0000000000E+00 -1.2156274079E+02  1.2156274079E+02  0.0000000000E+00 0. 9.
       6    2    1    2  101    0  2.5246708899E+01  8.4728971667E+01  2.1395727268E+02  2.9014051614E+02  1.7489256594E+02 0. 9.
      -6    2    1    2    0  102 -2.5246708899E+01 -8.4728971667E+01  3.1762708631E+01  1.9870494676E+02  1.7509537760E+02 0. 9.
      24    2    3    0    0    0  1.7246169346E+01 -1.8058961141E+01  5.7645053178E+01  1.0282816275E+02  8.1407140135E+01 0. 9.
       5    1    3    0  101    0  8.0005395525E+00  1.0278793281E+02  1.5631221951E+02  1.8731235339E+02  4.8000000000E+00 0. 9.
     -24    2    4    0    0    0  2.8649044016E+01 -3.9386412433E+00 -2.0655151829E+01  8.8240012196E+01  8.0767467692E+01 0. 9.
      -5    1    4    0    0  102 -5.3895752915E+01 -8.0790330423E+01  5.2417860460E+01  1.1046493456E+02  4.8000000000E+00 0. 9.
      -1    1    5    0    0  103 -2.5114757080E+01  1.5552017974E+01  2.9966392045E+01  4.2079803213E+01  3.3000000000E-01 0. 9.
       2    1    5    0  103    0  4.2360926427E+01 -3.3610979115E+01  2.7678661132E+01  6.0748359541E+01  3.3000000000E-01 0. 9.
      11    1    7    0    0    0 -2.1589076299E+00  3.2614070004E+01  6.4069025031E+00  3.3307459290E+01  5.1000000000E-04 0. 9.
     -12    1    7    0    0    0  3.0807951646E+01 -3.6552711247E+01 -2.7062054332E+01  5.4932552907E+01  0.0000000000E+00 0. 9.
#pdf     2   -2  3.7477828786E-01  1.2404361305E-01  1.9605941801E+02  2.3482369586E-01  5.4231365605E-01
</event>
<event>
    12    81  1.000000E+00  1.775308E+02  7.821965E-03  1.152779E-01
       2   -1    0    0  101    0  0.0000000000E+00  0.0000000000E+00  2.9075713819E+02  2.9075713819E+02  0.0000000000E+00 0. 9.
      -2   -1    0    0    0  102  0.0000000000E+00  0.0000000000E+00 -1.1546650897E+02  1.1546650897E+02  0.0000000000E+00 0. 9.
       6    2    1    2  101    0  8.2090093783E+00 -3.2807321142E+01  3.8244437509E+01  1.8349282827E+02  1.7624775991E+02 0. 9.
      -6    2    1    2    0  102 -8.2090093783E+00  3.2807321142E+01  1.3704619172E+02  2.2273081888E+02  1.7228943920E+02 0. 9.
      24    2    3    0    0    0 -1.4740503603E+01 -1.2627330745E+01 -4.8738003531E+01  9.1173289672E+01  7.4568383603E+01 0. 9.
       5    1    3    0  101    0  2.2949512981E+01 -2.0179990397E+01  8.6982441040E+01  9.2319538602E+01  4.8000000000E+00 0. 9.
     -24    2    4    0    0    0  1.5851001832E+01 -2.7383247016E+01  1.3105670256E+02  1.5745676113E+02  8.1336805102E+01 0. 9.
      -5    1    4    0    0  102 -2.4060011210E+01  6.0190568158E+01  5.9894891561E+00  6.5274057749E+01  4.8000000000E+00 0. 9.
      -3    1    5    0    0  103 -4.0606596868E+01  1.0888182208E+01 -2.7615295441E+01  5.0302114899E+01  5.0000000000E-01 0. 9.
       4    1    5    0  103    0  2.5866093265E+01 -2.3515512954E+01 -2.1122708090E+01  4.0871174773E+01  1.5000000000E+00 0. 9.
       1    1    7    0  104    0 -2.9005152028E+01 -7.6256957294E+00  8.5237117217E+01  9.0359975271E+01  3.3000000000E-01 0. 9.
      -2    1    7    0    0  104  4.4856153860E+01 -1.9757551286E+01  4.5819585342E+01  6.7096785861E+01  3.3000000000E-01 0. 9.
#pdf     2   -2  2.9669095734E-01  1.1782296833E-01  1.7753075796E+02  3.4078956335E-01  5.4826507846E-01
</event>
<event>
    12    81  1.000000E+00  1.798258E+02  7.823097E-03  1.150700E-01
       1   -1    0    0  101    0  0.0000000000E+00  0.0000000000E+00  1.5793118356E+02  1.5793118356E+02  0.0000000000E+00 0. 9.
      -1   -1    0    0    0  102  0.0000000000E+00  0.0000000000E+00 -2.0972766167E+02  2.0972766167E+02  0.0000000000E+00 0. 9.
       6    2    1    2  101    0  3.0779198710E+01  2.3565017449E+01 -5.4147776501E+01  1.8740716354E+02  1.7517646568E+02 0. 9.
      -6    2    1    2    0  102 -3.0779198710E+01 -2.3565017449E+01  2.3512983904E+00  1.8025168169E+02  1.7601838265E+02 0. 9.
      24    2    3    0    0    0 -2.0381698320E+01  3.9269373935E+01  2.3727144463E+01  9.2794228315E+01  7.8040336164E+01 0. 9.
       5    1    3    0  101    0  5.1160897030E+01 -1.5704356486E+01 -7.7874920963E+01  9.4612935229E+01  4.8000000000E+00 0. 9.
     -24    2    4    0    0    0  2.5185887924E+01 -4.7960700112E+01 -4.3551424674E+01  1.0371841939E+02  7.6981986357E+01 0. 9.
      -5    1    4    0    0  102 -5.5965086634E+01  2.4395682662E+01  4.5902723065E+01  7.6533262307E+01  4.8000000000E+00 0. 9.
      -1    1    5    0    0  103  1.5121252557E+01 -3.4525640362E+00 -1.7671540381E+01  2.3515201823E+01  3.3000000000E-01 0. 9.
       2    1    5    0  103    0 -3.5502950877E+01  4.2721937971E+01  4.1398684843E+01  6.9279026493E+01  3.3000000000E-01 0. 9.
       3    1    7    0  104    0 -2.4531024630E+01 -6.6990215063E+00 -2.6818320333E+01  3.6961065515E+01  5.0000000000E-01 0. 9.
      -4    1    7    0    0  104  4.9716912554E+01 -4.1261678605E+01 -1.6733104342E+01  6.6757353873E+01  1.5000000000E+00 0. 9.
#pdf     1   -1  1.6115426894E-01  2.1400781804E-01  1.7982575371E+02  2.6030176358E-01  2.0381729845E-01
</event>
<event>
    12    81  1.000000E+00  1.776993E+02  7.822049E-03  1.152625E-01
       2   -1    0    0  101    0  0.0000000000E+00  0.0000000000E+00  2.4803727575E+02  2.4803727575E+02  0.0000000000E+00 0. 9.
      -2   -1    0    0    0  102  0.0000000000E+00  0.0000000000E+00 -1.3763062092E+02  1.3763062092E+02  0.0000000000E+00 0. 9.
       6    2    1    2  101    0 -4.3139589005E+00  2.9555132390E+01  1.0797719265E+02  2.0782045808E+02  1.7503757475E+02 0. 9.
      -6    2    1    2    0  102  4.3139589005E+00 -2.9555132390E+01  2.4294621756E+00  1.7784743858E+02  1.7530457219E+02 0. 9.
      24    2    3    0    0    0  2.0520915532E+01 -9.5750904080E+00  1.3157779779E+02  1.5559044864E+02  7.9892931510E+01 0. 9.
       5    1    3    0  101    0 -2.4834874432E+01  3.9130222798E+01 -2.3600605135E+01  5.2230009449E+01  4.8000000000E+00 0. 9.
     -24    2    4    0    0    0  5.4329326554E+01 -5.4689185284E+01  2.7793378393E+01  1.1620633328E+02  8.2394522280E+01 0. 9.
      -5    1    4    0    0  102 -5.0015367654E+01  2.5134052894E+01 -2.5363916217E+01  6.1641105298E+01  4.8000000000E+00 0. 9.
      -1    1    5    0    0  103  3.2025266868E+01  1.5248889399E+01  2.0031388385E+01  4.0737105525E+01  3.3000000000E-01 0. 9.
       2    1    5    0  103    0 -1.1504351336E+01 -2.4823979807E+01  1.1154640940E+02  1.1485334311E+02  3.3000000000E-01 0. 9.
       1    1    7    0  104    0  3.2472858599E+01 -6.8771146626E+01 -2.7388022714E+00  7.6102346164E+01  3.3000000000E-01 0. 9.
      -2    1    7    0    0  104  2.1856467955E+01  1.4081961342E+01  3.0532180664E+01  4.0103987119E+01  3.3000000000E-01 0. 9.
#pdf     2   -2  2.5309926097E-01  1.4043940910E-01  1.7769929345E+02  4.0144134929E-01  5.3200063092E-01
</event>
<event>
    12    81  1.000000E+00  2.745775E+02  7.860566E-03  1.086154E-01
       2   -1    0    0  101    0  0.0000000000E+00  0.0000000000E+00  4.4226361807E+02  4.4226361807E+02  0.0000000000E+00 0. 9.
      -2   -1    0    0    0  102  0.0000000000E+00  0.0000000000E+00 -1.8227912280E+02  1.8227912280E+02  0.0000000000E+00 0. 9.
       6    2    1    2  101    0  2.1194160387E+02  2.3104930030E+00  2.0931138986E+02  3.4496546184E+02  1.7396933669E+02 0. 9.
      -6    2    1    2    0  102 -2.1194160387E+02 -2.3104930030E+00  5.0673105405E+01  2.7957727903E+02  1.7513169190E+02 0. 9.
      24    2    3    0    0    0  1.3444125470E+02 -9.0012174145E+00  2.1391733982E+02  2.6636193972E+02  8.3860489973E+01 0. 9.
       5    1    3    0  101    0  7.7500349174E+01  1.1311710418E+01 -4.6059499543E+00  7.8603522120E+01  4.8000000000E+00 0. 9.
     -24    2    4    0    0    0 -2.1125128691E+02 -2.5612337109E+01  8.0701061387E+01  2.4126056444E+02  8.0068099851E+01 0. 9.
      -5    1    4    0    0  102 -6.9031696463E-01  2.3301844106E+01 -3.0027955982E+01  3.8316714587E+01  4.8000000000E+00 0. 9.
     -15    1    5    0    0    0  6.8688014634E+01 -4.6050535738E+01  1.2257628080E+02  1.4787426260E+02  1.7770000000E+00 0. 9.
      16    1    5    0    0    0  6.5753240066E+01  3.7049318323E+01  9.1341059014E+01  1.1848767712E+02  0.0000000000E+00 0. 9.
      15    1    7    0    0    0 -2.0802319025E+01  1.1198306869E+01 -1.1676787119E+01  2.6412944553E+01  1.7770000000E+00 0. 9.
     -16    1    7    0    0    0 -1.9044896788E+02 -3.6810643978E+01  9.2377848506E+01  2.1484761989E+02  0.0000000000E+00 0. 9.
#pdf     2   -2  4.5128940620E-01  1.8599910490E-01  2.7457749660E+02  1.4476222946E-01  4.7559658961E-01
</event>
<event>
    12    81  1.000000E+00  1.758532E+02  7.821129E-03  1.154321E-01
       1   -1    0    0  101    0  0.0000000000E+00  0.0000000000E+00  3.5884258075E+02  3.5884258075E+02  0.0000000000E+00 0. 9.
      -1   -1    0    0    0  102  0.0000000000E+00  0.0000000000E+00 -1.0870086007E+02  1.0870086007E+02  0.0000000000E+00 0. 9.
       6    2    1    2  101    0  5.8806174768E-01  2.7389509507E+01  2.3064905643E+02  2.8913071497E+02  1.7218319332E+02 0. 9.
      -6    2    1    2    0  102 -5.8806174768E-01 -2.7389509507E+01  1.9492664257E+01  1.7841272585E+02  1.7521588323E+02 0. 9.
      24    2    3    0    0    0  1.4974374164E+01  8.3139412559E+01  1.6530757799E+02  2.0190935016E+02  7.9400230093E+01 0. 9.
       5    1    3    0  101    0 -1.4386312416E+01 -5.5749903051E+01  6.5341478439E+01  8.7221364813E+01  4.8000000000E+00 0. 9.
     -24    2    4    0    0    0  2.7670697198E+01  4.5190099977E+01 -5.1272260285E+00  9.6586469867E+01  8.0590601780E+01 0. 9.
      -5    1    4    0    0  102 -2.8258758945E+01 -7.2579609484E+01  2.4619890286E+01  8.1826255980E+01  4.8000000000E+00 0. 9.
      -1    1    5    0    0  103  2.9101731165E+01  7.9742615587E+01  1.6694136999E+02  1.8728407677E+02  3.3000000000E-01 0. 9.
       2    1    5    0  103    0 -1.4127357002E+01  3.3967969719E+00 -1.6337919969E+00  1.4625273393E+01  3.3000000000E-01 0. 9.
       3    1    7    0  104    0 -2.7235792432E+01  3.8038839176E+00  1.1378442378E+00  2.7528214831E+01  5.0000000000E-01 0. 9.
      -4    1    7    0    0  104  5.4906489630E+01  4.1386216059E+01 -6.2650702663E+00  6.9058255036E+01  1.5000000000E+00 0. 9.
#pdf     1   -1  3.6616589873E-01  1.1091924497E-01  1.7585323411E+02  8.3976404962E-02  3.2049556185E-01
</event>
<event>
    12    81  1.000000E+00  1.956946E+02  7.830555E-03  1.137197E-01
       2   -1    0    0  101    0  0.0000000000E+00  0.0000000000E+00  1.8952666790E+02  1.8952666790E+02  0.0000000000E+00 0. 9.
      -2   -1    0    0    0  102  0.0000000000E+00  0.0000000000E+00 -2.2161276587E+02  2.2161276587E+02  0.0000000000E+00 0. 9.
       6    2    1    2  101    0 -1.3839850453E+00 -8.1880998246E+01 -7.7138019267E+01  2.1080898122E+02  1.7827994631E+02 0. 9.
      -6    2    1    2    0  102  1.3839850453E+00  8.1880998246E+01  4.5051921297E+01  2.0033045255E+02  1.7718973254E+02 0. 9.
      24    2    3    0    0    0 -7.9333855709E-01 -6.4597408464E+01  2.3652056144E+01  1.0843344390E+02  8.3814899808E+01 0. 9.
       5    1    3    0  101    0 -5.9064648822E-01 -1.7283589782E+01 -1.0079007541E+02  1.0237553732E+02  4.8000000000E+00 0. 9.
     -24    2    4    0    0    0  5.5978106525E+01  2.7311274840E+01 -1.6241608654E+01  1.0164757852E+02  7.8670110101E+01 0. 9.
      -5    1    4    0    0  102 -5.4594121479E+01  5.4569723406E+01  6.1293529951E+01  9.8682874028E+01  4.8000000000E+00 0. 9.
      -3    1    5    0    0  103 -2.4919334788E+01 -7.3222416901E+01  6.6201383789E+00  7.7630997773E+01  5.0000000000E-01 0. 9.
       4    1    5    0  103    0  2.4125996230E+01  8.6250084369E+00  1.7031917765E+01  3.0802446127E+01  1.5000000000E+00 0. 9.
       3    1    7    0  104    0  1.3605809792E+01 -1.4855847235E+01 -3.3777723159E+01  3.9331906119E+01  5.0000000000E-01 0. 9.
      -4    1    7    0    0  104  4.2372296733E+01  4.2167122076E+01  1.7536114505E+01  6.2315672399E+01  1.5000000000E+00 0. 9.
#pdf     2   -2  1.9339455908E-01  2.2613547537E-01  1.9569461815E+02  4.7609760064E-01  4.3492409917E-01
</event>
<event>
    12    81  1.000000E+00  1.892264E+02  7.827589E-03  1.142526E-01
       2   -1    0    0  101    0  0.0000000000E+00  0.0000000000E+00  1.9590637346E+02  1.9590637346E+02  0.0000000000E+00 0. 9.
      -2   -1    0    0    0  102  0.0000000000E+00  0.0000000000E+00 -2.4347513564E+02  2.4347513564E+02  0.0000000000E+00 0. 9.
       6    2    1    2  101    0  6.7592958376E+01  3.0408108847E+01  8.5884095933E+01  2.0805206735E+02  1.7440218947E+02 0. 9.
      -6    2    1    2    0  102 -6.7592958376E+01 -3.0408108847E+01 -1.3345285812E+02  2.3132944175E+02  1.7381077117E+02 0. 9.
      24    2    3    0    0    0  7.4507021197E+01  5.0138470986E+01 -9.5334492987E-01  1.1860447046E+02  7.7465792874E+01 0. 9.
       5    1    3    0  101    0 -6.9140628211E+00 -1.9730362138E+01  8.6837440863E+01  8.9447596896E+01  4.8000000000E+00 0. 9.
     -24    2    4    0    0    0 -1.0765733660E+02  1.1645997403E-02 -7.3155913156E+01  1.5265748068E+02  7.9764757365E+01 0. 9.
      -5    1    4    0    0  102  4.0064378225E+01 -3.0419754845E+01 -6.0296944960E+01  7.8671961072E+01  4.8000000000E+00 0. 9.
      -3    1    5    0    0  103  6.5968288387E+01  5.9887550630E+01  2.2384542818E+01  9.1867576165E+01  5.0000000000E-01 0. 9.
       4    1    5    0  103    0  8.5387328100E+00 -9.7490796443E+00 -2.3337887748E+01  2.6736894293E+01  1.5000000000E+00 0. 9.
      15    1    7    0    0    0 -2.6965404295E+01  2.4242511428E+01  6.3028683355E+00  3.6847201622E+01  1.7770000000E+00 0. 9.
     -16    1    7    0    0    0 -8.0691932306E+01 -2.4230865430E+01 -7.9458781491E+01  1.1581027906E+02  0.0000000000E+00 0. 9.
#pdf     2   -2  1.9990446271E-01  2.4844401596E-01  1.8922635926E+02  4.6924841166E-01  4.0587842674E-01
</event>
<event>
    12    81  1.000000E+00  1.781258E+02  7.822260E-03  1.152237E-01
       2   -1    0    0  101    0  0.0000000000E+00  0.0000000000E+00  1.5922951061E+02  1.5922951061E+02  0.0000000000E+00 0. 9.
      -2   -1    0    0    0  102  0.0000000000E+00  0.0000000000E+00 -2.1973921214E+02  2.1973921214E+02  0.0000000000E+00 0. 9.
       6    2    1    2  101    0  3.5145847950E+01 -9.6766579979E+00 -8.8099503009E+01  1.9874862308E+02  1.7438642265E+02 0. 9.
      -6    2    1    2    0  102 -3.5145847950E+01  9.6766579979E+00  2.7589801475E+01  1.8022009968E+02  1.7432503791E+02 0. 9.
      24    2    3    0    0    0  1.9689642722E+00 -3.7950698253E+01 -1.1596085457E+02  1.4679266217E+02  8.1590646254E+01 0. 9.
       5    1    3    0  101    0  3.3176883678E+01  2.8274040255E+01  2.7861351560E+01  5.1955960906E+01  4.8000000000E+00 0. 9.
     -24    2    4    0    0    0 -3.1578785909E+01  5.5314002198E+01 -3.0149333273E+01  1.0638014573E+02  7.9692499963E+01 0. 9.
      -5    1    4    0    0  102 -3.5670620407E+00 -4.5637344200E+01  5.7739134747E+01  7.3839953945E+01  4.8000000000E+00 0. 9.
      -3    1    5    0    0  103  4.1442552284E+01 -2.2894469457E+01 -5.4476177586E+01  7.2177183348E+01  5.0000000000E-01 0. 9.
       4    1    5    0  103    0 -3.9473588012E+01 -1.5056228795E+01 -6.1484676983E+01  7.4615478822E+01  1.5000000000E+00 0. 9.
       1    1    7    0  104    0  1.3164509392E+01  3.8468040029E+01 -4.0579798979E+01  5.7444959713E+01  3.3000000000E-01 0. 9.
      -2    1    7    0    0  104 -4.4743295301E+01  1.6845962169E+01  1.0430465707E+01  4.8935186018E+01  3.3000000000E-01 0. 9.
#pdf     2   -2  1.6247909246E-01  2.2422368586E-01  1.7812577007E+02  5.1220347339E-01  4.4028808929E-01
</event>
<event>
    12    82  1.000000E+00  1.971528E+02  7.831210E-03  1.136027E-01
      21   -1    0    0  101  102  0.0000000000E+00  0.0000000000E+00  6.9086798713E+01  6.9086798713E+01  0.0000000000E+00 0. 9.
      21   -1    0    0  102  103  0.0000000000E+00  0.0000000000E+00 -5.9096517700E+02  5.9096517700E+02  0.0000000000E+00 0. 9.
       6    2    1    2  101    0  6.2309982170E+01  6.4498794584E+01 -1.8765517190E+02  2.7161450753E+02  1.7469215432E+02 0. 9.
      -6    2    1    2    0  103 -6.2309982170E+01 -6.4498794584E+01 -3.3422320638E+02  3.8843746818E+02  1.7645363872E+02 0. 9.
      24    2    3    0    0    0 -5.0314341502E+00  1.3107874050E+01 -1.9909802706E+01  8.3631949962E+01  8.0004819348E+01 0. 9.
       5    1    3    0  101    0  6.7341416320E+01  5.1390920534E+01 -1.6774536919E+02  1.8798255757E+02  4.8000000000E+00 0. 9.
     -24    2    4    0    0    0 -6.6838011783E+01  5.2559343110E+00 -1.0359637958E+02  1.4740220416E+02  8.0624160559E+01 0. 9.
      -5    1    4    0    0  103  4.5280296134E+00 -6.9754728895E+01 -2.3062682680E+02  2.4103526401E+02  4.8000000000E+00 0. 9.
      -3    1    5    0    0  104  1.6136097343E+01 -2.1302209219E+01  1.4619886496E+01  3.0465535220E+01  5.0000000000E-01 0. 9.
       4    1    5    0  104    0 -2.1167531493E+01  3.4410083269E+01 -3.4529689202E+01  5.3166414742E+01  1.5000000000E+00 0. 9.
      15    1    7    0    0    0 -7.8819617270E+00  2.6572893377E+01 -7.2056390173E+01  7.7223863389E+01  1.7770000000E+00 0. 9.
     -16    1    7    0    0    0 -5.8956050056E+01 -2.1316959066E+01 -3.1539989406E+01  7.0178340774E+01  0.0000000000E+00 0. 9.
#pdf    21   21  7.0496733380E-02  6.0302569081E-01  1.9715284953E+02  1.1899451499E+00  1.4013922925E-03
</event>
<event>
    12    81  1.000000E+00  2.941093E+02  7.866684E-03  1.076351E-01
       2   -1    0    0  101    0  0.0000000000E+00  0.0000000000E+00  2.7801670180E+02  2.7801670180E+02  0.0000000000E+00 0. 9.
      -2   -1    0    0    0  102  0.0000000000E+00  0.0000000000E+00 -4.0144404263E+02  4.0144404263E+02  0.0000000000E+00 0. 9.
       6    2    1    2  101    0  1.0145417547E+02  2.1303765852E+02  9.9406841717E+01  3.1054222786E+02  1.7571784609E+02 0. 9.
      -6    2    1    2    0  102 -1.0145417547E+02 -2.1303765852E+02 -2.2283418255E+02  3.6891851657E+02  1.7540754056E+02 0. 9.
      24    2    3    0    0    0  1.2124730118E+02  2.1395057409E+02  5.9036063367E+01  2.6531567610E+02  8.0195978754E+01 0. 9.
       5    1    3    0  101    0 -1.9793125704E+01 -9.1291556606E-01  4.0370778350E+01  4.5226551765E+01  4.8000000000E+00 0. 9.
     -24    2    4    0    0    0 -1.1612917268E+01 -1.2083200152E+02 -6.1083878688E+01  1.6213472693E+02  8.8437531634E+01 0. 9.
      -5    1    4    0    0  102 -8.9841258207E+01 -9.2205657006E+01 -1.6175030386E+02  2.0678378965E+02  4.8000000000E+00 0. 9.
      -3    1    5    0    0  103  2.0386533928E+00 -2.0469151358E+00  1.4276200881E+01  1.4574151119E+01  5.0000000000E-01 0. 9.
       4    1    5    0  103    0  1.1920864779E+02  2.1599748922E+02  4.4759862486E+01  2.5074152498E+02  1.5000000000E+00 0. 9.
       3    1    7    0  104    0 -4.1290642245E+01 -1.0957917334E+02 -3.8837517793E+01  1.2337388361E+02  5.0000000000E-01 0. 9.
      -2    1    7    0    0  104  2.9677724977E+01 -1.1252828172E+01 -2.2246360895E+01  3.8760843318E+01  3.3000000000E-01 0. 9.
#pdf     2   -2  2.8369051204E-01  4.0963677820E-01  2.9410929436E+02  3.4370177460E-01  1.8491526577E-01
</event>
<event>
    12    81  1.000000E+00  2.074995E+02  7.835729E-03  1.128029E-01
       1   -1    0    0  101    0  0.0000000000E+00  0.0000000000E+00  3.0619768292E+02  3.0619768292E+02  0.0000000000E+00 0. 9.
      -1   -1    0    0    0  102  0.0000000000E+00  0.0000000000E+00 -1.4114989914E+02  1.4114989914E+02  0.0000000000E+00 0. 9.
       6    2    1    2  101    0  1.5568203922E+01  1.1003930579E+02  9.6403368285E+01  2.2905034373E+02  1.7555464321E+02 0. 9.
      -6    2    1    2    0  102 -1.5568203922E+01 -1.1003930579E+02  6.8644415498E+01  2.1829723832E+02  1.7490171722E+02 0. 9.
      24    2    3    0    0    0  4.0864041927E+01  5.3111950384E+01  1.2677325332E+02  1.5958111938E+02  7.0028042314E+01 0. 9.
       5    1    3    0  101    0 -2.5295838004E+01  5.6927355407E+01 -3.0369885036E+01  6.9469224345E+01  4.8000000000E+00 0. 9.
     -24    2    4    0    0    0 -5.4309010344E+00 -1.4292368800E+02  2.9219659645E+01  1.6574727279E+02  7.8496462652E+01 0. 9.
      -5    1    4    0    0  102 -1.0137302888E+01  3.2884382213E+01  3.9424755853E+01  5.2549965533E+01  4.8000000000E+00 0. 9.
     -15    1    5    0    0    0 -1.2330374624E+00  5.0363448722E+01  4.5028077403E+01  6.7592032313E+01  1.7770000000E+00 0. 9.
      16    1    5    0    0    0  4.2097079389E+01  2.7485016622E+00  8.1745175918E+01  9.1989087072E+01  0.0000000000E+00 0. 9.
       1    1    7    0  103    0 -2.6431961035E+01 -1.2832656735E+01  1.5603035600E+01  3.3269945340E+01  3.3000000000E-01 0. 9.
      -2    1    7    0    0  103  2.1001060000E+01 -1.3009103127E+02  1.3616624044E+01  1.3247732745E+02  3.3000000000E-01 0. 9.
#pdf     1   -1  3.1244661522E-01  1.4403050932E-01  2.0749949280E+02  1.1657456653E-01  2.7777719886E-01
</event>
</LesHouchesEvents>
