<LesHouchesEvents version="1.0">
<header>
<!--
#*********************************************************************
#                                                                    *
#                       MadGraph/MadEvent                            *
#                                                                    *
#                      The new web generation                        *
#                                                                    *
#                   http://madgraph.hep.uiuc.edu                     *
#                   http://madgraph.phys.ucl.ac.be                   *
#                   http://madgraph.roma2.infn.it                    *
#                                                                    *
#            CP3 team                      Tim Stelzer               *
#      Universite de Louvain          University of Illinois         *
#                                                                    *
#....................................................................*
#                                                                    *
# This file contains all the information necessary to reproduce      *
# the events generated:                                              *
#                                                                    *
# 1. software version                                                *
# 2. proc_card.dat      : code generation info including model       *
# 3. param_card.dat     : model primary parameters in the LH format  *
# 4. run_card.dat       : running parameters (collider and cuts)     *
# 5. pythia_card.dat    : present only in the pythia event file      *
# 6. pgs_card.dat       : present only in the pgs event file         *
#                                                                    *
#                                                                    *
#*********************************************************************
-->
<MGVersion>
# MG/ME version    : 4.4.48
# madgraph version : 4.4.5
# template version : 2.4.25
# helas version    : 3.8
# model version    : sm_1.2.1
</MGVersion>
<MGProcCard>
#*********************************************************************
#                        MadGraph/MadEvent                           *
#                   http://madgraph.hep.uiuc.edu                     *
#                                                                    *
#                          proc_card.dat                             *
#                                                                    *
# This file is used to generate the code for a specific process.     *
# Some notation/conventions:                                         *
#                                                                    *
# 0. Do not modify the TAGS and their order.                         *
# 1. hash/pound is a comment.                                        *
# 2. The number after the @ is used as an identifier for the class   *
#    of processes. It can be any positive integer.                   *
# 3. The number of lines for the max couplings depends on how many   *
#    different classes of couplings are present in the model         *
#    In the SM these are just two: QED (which include EW) and QCD    *
# 4. Write "end_coup" after  the couplings list,                     *
#    to tell MG that the couplings input is over.                    *
# 5. Write "done" after the proc list to                             *
#    to tell MG that the proc input is over.                         *
# 6. Some model names available at present are:                      *
#    sm     =  Standard Model                                        *
#    smckm =  Standard Model with Cabibbo matrix                     *
#    mssm   =  Minimal Supersymmetric Standard Model                 *
#    2hdm   =  Generic Two Higgs Doublet model                       *
#    heft   =  Higgs EFT (+Standard Model)                           *
#    usrmod =  User Model                                            *
# 7. Don't leave spaces between the particles name in the            *
#    definition of the multiparticles.                               *
#*********************************************************************
#*********************************************************************
# Process(es) requested : mg2 input                                  *
#*********************************************************************
# Begin PROCESS # This is TAG. Do not modify this line
pp>e+vejj  @1       # First Process
QCD=99             # Max QCD couplings
QED=2              # Max QED couplings
end_coup           # End the couplings input
done               # this tells MG there are no more procs
# End PROCESS  # This is TAG. Do not modify this line
#*********************************************************************
# Model information                                                  *
#*********************************************************************
# Begin MODEL  # This is TAG. Do not modify this line
sm           
# End   MODEL  # This is TAG. Do not modify this line
#*********************************************************************
# Start multiparticle definitions                                    *
#*********************************************************************
# Begin MULTIPARTICLES # This is TAG. Do not modify this line
P uu~dd~cc~ss~g
J uu~dd~cc~ss~g
L+ e+mu+
L- e-mu-
vl vevm
vl~ ve~vm~
# End  MULTIPARTICLES # This is TAG. Do not modify this line
</MGProcCard>
<slha>
#******************************************************************
#                      MadGraph/MadEvent                          *
#******************************************************************
#   Les Houches friendly file for the SM parameters of MadGraph   *
#        Spectrum and decay widths produced by SMCalc             *
#******************************************************************
#*Please note the following IMPORTANT issues:                     *
#                                                                 *
#0. REFRAIN from editing this file by hand! Some of the parame-   *
#   ters are not independent                                      *
#   (such as G_Fermi, alpha_em, sin(theta_W),MZ,MW) and serious   *
#   problems might be encountered (such as violation of unitarity *
#   or gauge invariance).  Always use a calculator.               *
#                                                                 *
#1. alpha_S(MZ) has been used in the calculation of the parameters*
#   but, for consistency, it will be reset by madgraph to the     *
#   value expected IF the pdfs for collisions with hadrons are    *
#   used. This value is KEPT by madgraph when no pdf are used     *
#   lpp(i)=0 .                                                    *
#                                                                 *
#2. Values of the charm and bottom kinematic (pole) masses are    *
#   those used in the matrix elements and phase space UNLESS they *
#   are set to ZERO from the start in the model (particles.dat)   *
#   This happens, for example,  when using 5-flavor QCD where     *
#   charm and bottom are treated as partons in the initial state  *
#   and a zero mass might be hardwired in the model definition.   *
#                                                                 *
#******************************************************************
Block SMINPUTS      # Standard Model inputs
     1         1.32506980E+02   # alpha_em(MZ)(-1) SM MSbar
     2         1.16639000E-05   # G_Fermi
     3         1.18000000E-01   # alpha_s(MZ) SM MSbar
     4         9.11880000E+01   # Z mass (as input parameter)
Block MGYUKAWA     # Yukawa masses m/v=y/sqrt(2)
#    PDG          YMASS
     5         4.20000000E+00   # mbottom for the Yukawa  y_b
     4         1.42000000E+00   # mcharm  for the Yukawa  y_c
     6         1.64500000E+02   # mtop    for the Yukawa  y_t
    15         1.77700000E+00   # mtau    for the Yukawa  y_ta
Block MGCKM     # CKM elements for MadGraph
     1   1     9.75000000E-01   # Vud for Cabibbo matrix
Block MASS      #  Mass spectrum (kinematic masses)
#       PDG       Mass
         5     4.70000000E+00   # bottom   pole mass
         6     1.74300000E+02   # top      pole mass
        15     1.77700000E+00   # tau      mass
        23     9.11880000E+01   # Z        mass
        24     8.04190000E+01   # W        mass
        25     1.20000000E+02   # H        mass
#            PDG       Width
DECAY         6     1.50833649E+00   # top width
DECAY        23     2.44140351E+00   # Z   width
DECAY        24     2.04759951E+00   # W   width
DECAY        25     5.75308848E-03   # H   width
#        BR           NDA        ID1       ID2
     8.27451012E-02    2           4        -4   # BR( H -> c  cbar  )
     7.17809696E-01    2           5        -5   # BR( H -> b  bbar  )
     0.00000000E+00    2           6        -6   # BR( H -> t  tbar  )
     4.31720144E-02    2          15       -15   # BR( H -> tau- tau+)
     6.90597075E-03    2          23        23   # BR( H -> Z   Z^(*))
     7.45906395E-02    2          24       -24   # BR( H -> W   W^(*))
     3.01765558E-02    2          21        21   # BR( H -> g   g    )
     1.42800773E-03    2          22        22   # BR( H -> A   A    )
</slha>
<MGRunCard>
#*********************************************************************
#                       MadGraph/MadEvent                            *
#                  http://madgraph.hep.uiuc.edu                      *
#                                                                    *
#                        run_card.dat                                *
#                                                                    *
#  This file is used to set the parameters of the run.               *
#                                                                    *
#  Some notation/conventions:                                        *
#                                                                    *
#   Lines starting with a '# ' are info or comments                  *
#                                                                    *
#   mind the format:   value    = variable     ! comment             *
#*********************************************************************
#
#*******************                                                 
# Running parameters
#*******************                                                 
#                                                                    
#*********************************************************************
# Tag name for the run (one word)                                    *
#*********************************************************************
  'fermi'     = run_tag ! name of the run 
#*********************************************************************
# Run to generate the grid pack                                      *
#*********************************************************************
  .false.     = gridpack  !True = setting up the grid pack
#*********************************************************************
# Number of events and rnd seed                                      *
#*********************************************************************
  100         = nevents ! Number of unweighted events requested 
     25531 = iseed   ! rnd seed (0=assigned automatically=default))
#*********************************************************************
# Collider type and energy                                           *
#*********************************************************************
        1     = lpp1  ! beam 1 type (0=NO PDF)
        1    = lpp2  ! beam 2 type (0=NO PDF)
   3500.0    = ebeam1  ! beam 1 energy in GeV
   3500.0    = ebeam2  ! beam 2 energy in GeV
#*********************************************************************
# Beam polarization from -100 (left-handed) to 100 (right-handed)    *
#*********************************************************************
        0     = polbeam1 ! beam polarization for beam 1
        0     = polbeam2 ! beam polarization for beam 2
#*********************************************************************
# PDF CHOICE: this automatically fixes also alpha_s and its evol.    *
#*********************************************************************
# 'cteq6_l'    = pdlabel     ! PDF set  
 'lhapdf'    = pdlabel        ! PDF label
 10042       = lhaid          ! PDF set 
#*********************************************************************
# Renormalization and factorization scales                           *
#*********************************************************************
 T        = fixed_ren_scale  ! if .true. use fixed ren scale
 T        = fixed_fac_scale  ! if .true. use fixed fac scale
 91.188	  = scale            ! fixed ren scale
 80.4     = dsqrt_q2fact1    ! fixed fact scale for pdf1
 80.4     = dsqrt_q2fact2    ! fixed fact scale for pdf2
 1        = scalefact        ! scale factor for event-by-event scales
#*********************************************************************
# Matching - Warning! ickkw > 0 is still beta
#*********************************************************************
 0        = ickkw            ! 0 no matching, 1 MLM, 2 CKKW matching
 1        = highestmult      ! for ickkw=2, highest mult group
 1        = ktscheme         ! for ickkw=1, 1 Durham kT, 2 Pythia pTE
 1        = alpsfact         ! scale factor for QCD emission vx
 F        = chcluster        ! cluster only according to channel diag
 F        = pdfwgt           ! for ickkw=1, perform pdf reweighting
#*********************************************************************
#                                                                    
#**********************************
# BW cutoff (M+/-bwcutoff*Gamma)
#**********************************
  15d0  = bwcutoff
#*******************                                                 
# Standard Cuts
#*******************                                                 
#                                                                    
#*********************************************************************
# Minimum and maximum pt's                                           *
#*********************************************************************
 0d0 = ptj       ! minimum pt for the jets 
 0d0  = ptb       ! minimum pt for the b 
 0d0 = pta       ! minimum pt for the photons 
 0d0 = ptl       ! minimum pt for the charged leptons 
 0d0  = misset    ! minimum missing Et (sum of neutrino's momenta)
 0d0  = ptheavy   ! minimum pt for one heavy final state
 0d0 = ptonium   ! minimum pt for the quarkonium states
 1d9 = ptjmax    ! maximum pt for the jets
 1d9 = ptbmax    ! maximum pt for the b
 1d9 = ptamax    ! maximum pt for the photons
 1d9 = ptlmax    ! maximum pt for the charged leptons
 1d9 = missetmax ! maximum missing Et (sum of neutrino's momenta)
#*********************************************************************
# Minimum and maximum E's (in the lab frame)                         *
#*********************************************************************
 0d0  = ej     ! minimum E for the jets 
 0d0  = eb     ! minimum E for the b 
 0d0  = ea     ! minimum E for the photons 
 0d0  = el     ! minimum E for the charged leptons 
 1d9  = ejmax ! maximum E for the jets
 1d9  = ebmax ! maximum E for the b
 1d9  = eamax ! maximum E for the photons
 1d9  = elmax ! maximum E for the charged leptons
#*********************************************************************
# Maximum and minimum rapidity                                       *
#*********************************************************************
 1d9  = etaj    ! max rap for the jets 
 1d9  = etab    ! max rap for the b 
 1d9  = etaa    ! max rap for the photons 
 1d9  = etal    ! max rap for the charged leptons 
 1d9  = etaonium ! max rap for the quarkonium states
 0d0  = etajmin ! min rap for the jets
 0d0  = etabmin ! min rap for the b
 0d0  = etaamin ! min rap for the photons
 0d0  = etalmin ! main rap for the charged leptons
#*********************************************************************
# Minimum and maximum DeltaR distance                                *
#*********************************************************************
 0d0 = drjj    ! min distance between jets 
 0d0 = drbb    ! min distance between b's 
 0d0 = drll    ! min distance between leptons 
 0d0 = draa    ! min distance between gammas 
 0d0 = drbj    ! min distance between b and jet 
 0d0 = draj    ! min distance between gamma and jet 
 0d0 = drjl    ! min distance between jet and lepton 
 0d0 = drab    ! min distance between gamma and b 
 0d0 = drbl    ! min distance between b and lepton 
 0d0 = dral    ! min distance between gamma and lepton 
 1d9 = drjjmax ! max distance between jets
 1d9 = drbbmax ! max distance between b's
 1d9 = drllmax ! max distance between leptons
 1d9 = draamax ! max distance between gammas
 1d9 = drbjmax ! max distance between b and jet
 1d9 = drajmax ! max distance between gamma and jet
 1d9 = drjlmax ! max distance between jet and lepton
 1d9 = drabmax ! max distance between gamma and b
 1d9 = drblmax ! max distance between b and lepton
 1d9 = dralmax ! maxdistance between gamma and lepton
#*********************************************************************
# Minimum and maximum invariant mass for pairs                       *
#*********************************************************************
 0d0   = mmjj    ! min invariant mass of a jet pair 
 0d0   = mmbb    ! min invariant mass of a b pair 
 0d0   = mmaa    ! min invariant mass of gamma gamma pair
 0d0   = mmll    ! min invariant mass of l+l- (same flavour) lepton pair
 1d9   = mmjjmax ! max invariant mass of a jet pair
 1d9   = mmbbmax ! max invariant mass of a b pair
 1d9   = mmaamax ! max invariant mass of gamma gamma pair
 1d9   = mmllmax ! max invariant mass of l+l- (same flavour) lepton pair
#*********************************************************************
# Minimum and maximum invariant mass for all letpons                 *
#*********************************************************************
 0d0   = mmnl    ! min invariant mass for all letpons (l+- and vl) 
 1d9   = mmnlmax ! max invariant mass for all letpons (l+- and vl) 
#*********************************************************************
# Inclusive cuts                                                     *
#*********************************************************************
 0d0  = xptj ! minimum pt for at least one jet  
 0d0  = xptb ! minimum pt for at least one b 
 0d0  = xpta ! minimum pt for at least one photon 
 0d0  = xptl ! minimum pt for at least one charged lepton 
#*********************************************************************
# Control the pt's of the jets sorted by pt                          *
#*********************************************************************
 0d0   = ptj1min ! minimum pt for the leading jet in pt
 0d0   = ptj2min ! minimum pt for the second jet in pt
 0d0   = ptj3min ! minimum pt for the third jet in pt
 0d0   = ptj4min ! minimum pt for the fourth jet in pt
 1d9   = ptj1max ! maximum pt for the leading jet in pt 
 1d9   = ptj2max ! maximum pt for the second jet in pt
 1d9   = ptj3max ! maximum pt for the third jet in pt
 1d9   = ptj4max ! maximum pt for the fourth jet in pt
 0   = cutuse  ! reject event if fails any (0) / all (1) jet pt cuts
#*********************************************************************
# Control the Ht(k)=Sum of k leading jets                            *
#*********************************************************************
 0d0 = htjmin ! minimum jet HT=Sum(jet pt)
 1d9 = htjmax ! maximum jet HT=Sum(jet pt)
 0d0 = ht2min ! minimum Ht for the two leading jets
 0d0 = ht3min ! minimum Ht for the three leading jets
 0d0 = ht4min ! minimum Ht for the four leading jets
 1d9 = ht2max ! maximum Ht for the two leading jets
 1d9 = ht3max ! maximum Ht for the three leading jets
 1d9 = ht4max ! maximum Ht for the four leading jets
#*********************************************************************
# WBF cuts                                                           *
#*********************************************************************
 0   = xetamin ! minimum rapidity for two jets in the WBF case  
 0   = deltaeta ! minimum rapidity for two jets in the WBF case 
#*********************************************************************
# maximal pdg code for quark to be considered as a jet               *
# otherwise b cuts are applied                                       *
#*********************************************************************
 4 = maxjetflavor
#*********************************************************************
# Jet measure cuts                                                   *
#*********************************************************************
 0   = xqcut   ! minimum kt jet measure between partons
#*********************************************************************
 30d0  = ktdurham    ! minimum durham kt jet measure between partons
 0.4   = dparameter  ! D parameter for hadronic kT
 T     = dokt        ! T: enable durham kt cut
#*********************************************************************
</MGRunCard>
<MGGenerationInfo>
#  Number of Events        :         100
#  Integrated weight (pb)  :  .14364E+03
#  Truncated wgt (pb)      :  .33911E+00
#  Unit wgt                :  .14364E+01
</MGGenerationInfo>
</header>
<init>
     2212     2212  0.35000000000E+04  0.35000000000E+04 0 0 10042 10042 3  1
  0.14364000000E+03  0.22892000000E+02  0.14364000000E+01   1
</init>
<event>
 7   1  0.1436400E+01  0.8040000E+02  0.7546772E-02  0.1297830E+00
        2   -1    0    0  501    0  0.00000000000E+00  0.00000000000E+00  0.12445661806E+03  0.12445661806E+03  0.00000000000E+00 0.  1.
        2   -1    0    0  502    0  0.00000000000E+00  0.00000000000E+00 -0.83658800179E+03  0.83658800179E+03  0.00000000000E+00 0. -1.
       24    2    1    2    0    0 -0.36481067053E+02 -0.11381786397E+03 -0.40635105062E+03  0.43130873836E+03  0.81367542855E+02 0.  0.
      -11    1    3    3    0    0 -0.19230533854E+02 -0.76117812777E+02 -0.13001840708E+03  0.15188324804E+03  0.00000000000E+00 0.  1.
       12    1    3    3    0    0 -0.17250533200E+02 -0.37700051198E+02 -0.27633264354E+03  0.27942549032E+03  0.00000000000E+00 0. -1.
        2    1    1    2  502    0  0.11241185340E+03  0.81335386120E+02  0.62594572251E+02  0.15221678716E+03  0.00000000000E+00 0.  1.
        1    1    1    2  501    0 -0.75930786342E+02  0.32482477855E+02 -0.36837490536E+03  0.37751909433E+03  0.00000000000E+00 0. -1.
</event>
<event>
 7   1  0.1436400E+01  0.8040000E+02  0.7546772E-02  0.1297830E+00
       21   -1    0    0  501  502  0.00000000000E+00  0.00000000000E+00  0.10196056713E+03  0.10196056713E+03  0.00000000000E+00 0. -1.
        2   -1    0    0  503    0  0.00000000000E+00  0.00000000000E+00 -0.12817175353E+03  0.12817175353E+03  0.00000000000E+00 0. -1.
       24    2    1    2    0    0 -0.25089597872E+02  0.15355294877E+02 -0.52367837400E+02  0.10131029773E+03  0.81585004939E+02 0.  0.
      -11    1    3    3    0    0 -0.29973574745E+02 -0.51425790837E+01 -0.68384868912E+02  0.74842177940E+02  0.00000000000E+00 0.  1.
       12    1    3    3    0    0  0.48839768734E+01  0.20497873961E+02  0.16017031512E+02  0.26468119795E+02  0.00000000000E+00 0. -1.
        1    1    1    2  501    0 -0.42724633456E+02 -0.56638472062E+00 -0.18208506603E+02  0.46446364856E+02  0.00000000000E+00 0. -1.
       21    1    1    2  503  502  0.67814231328E+02 -0.14788910157E+02  0.44365157605E+02  0.82375658077E+02  0.00000000000E+00 0. -1.
</event>
<event>
 7   1  0.1436400E+01  0.8040000E+02  0.7546772E-02  0.1297830E+00
       21   -1    0    0  501  502  0.00000000000E+00  0.00000000000E+00  0.17024516624E+02  0.17024516624E+02  0.00000000000E+00 0.  1.
        2   -1    0    0  503    0  0.00000000000E+00  0.00000000000E+00 -0.14009935504E+04  0.14009935504E+04  0.00000000000E+00 0. -1.
       24    2    1    2    0    0 -0.68155630538E+02  0.28426620245E+02 -0.35406731981E+03  0.37042551135E+03  0.79988310344E+02 0.  0.
      -11    1    3    3    0    0 -0.46747594686E+02 -0.18573217095E+02 -0.11002912538E+03  0.12098227322E+03  0.00000000000E+00 0.  1.
       12    1    3    3    0    0 -0.21408035852E+02  0.46999837339E+02 -0.24403819443E+03  0.24944323813E+03  0.00000000000E+00 0. -1.
        1    1    1    2  501    0  0.42597355292E+02  0.59996774161E+02 -0.73467085209E+03  0.73834640143E+03  0.00000000000E+00 0. -1.
       21    1    1    2  503  502  0.25558275246E+02 -0.88423394406E+02 -0.29523086189E+03  0.30924615425E+03  0.00000000000E+00 0.  1.
</event>
<event>
 7   1  0.1436400E+01  0.8040000E+02  0.7546772E-02  0.1297830E+00
       21   -1    0    0  501  502  0.00000000000E+00  0.00000000000E+00  0.45803314715E+02  0.45803314715E+02  0.00000000000E+00 0.  1.
        2   -1    0    0  503    0  0.00000000000E+00  0.00000000000E+00 -0.16319962968E+04  0.16319962968E+04  0.00000000000E+00 0. -1.
       24    2    1    2    0    0 -0.14143440409E+01  0.38910250130E+01 -0.15494495170E+04  0.15518328974E+04  0.85874299954E+02 0.  0.
      -11    1    3    3    0    0  0.91229807113E+01 -0.37723404207E+02 -0.97971202901E+03  0.98048046579E+03  0.00000000000E+00 0.  1.
       12    1    3    3    0    0 -0.10537324752E+02  0.41614429220E+02 -0.56973748799E+03  0.57135243166E+03  0.00000000000E+00 0. -1.
        1    1    1    2  501    0  0.27097869093E+02  0.17795499877E+02 -0.70951481730E+02  0.78006968182E+02  0.00000000000E+00 0. -1.
       21    1    1    2  503  502 -0.25683525052E+02 -0.21686524890E+02  0.34208016661E+02  0.47959745880E+02  0.00000000000E+00 0.  1.
</event>
<event>
 7   1  0.1436400E+01  0.8040000E+02  0.7546772E-02  0.1297830E+00
       21   -1    0    0  501  502  0.00000000000E+00  0.00000000000E+00  0.15112765353E+02  0.15112765353E+02  0.00000000000E+00 0. -1.
        2   -1    0    0  503    0  0.00000000000E+00  0.00000000000E+00 -0.13441441809E+04  0.13441441809E+04  0.00000000000E+00 0. -1.
       24    2    1    2    0    0 -0.68448242621E+02 -0.78193747324E+02 -0.83840738800E+03  0.84873706167E+03  0.81413927264E+02 0.  0.
      -11    1    3    3    0    0 -0.12317232145E+02  0.16092509209E+02 -0.85092022630E+02  0.87471911924E+02  0.00000000000E+00 0.  1.
       12    1    3    3    0    0 -0.56131010477E+02 -0.94286256533E+02 -0.75331536537E+03  0.76126514974E+03  0.00000000000E+00 0. -1.
        1    1    1    2  501    0  0.53543654241E+01  0.67290518567E+02 -0.34345157504E+03  0.35002238144E+03  0.00000000000E+00 0. -1.
       21    1    1    2  503  502  0.63093877197E+02  0.10903228757E+02 -0.14717245251E+03  0.16049750314E+03  0.00000000000E+00 0. -1.
</event>
<event>
 7   1  0.1436400E+01  0.8040000E+02  0.7546772E-02  0.1297830E+00
       21   -1    0    0  501  502  0.00000000000E+00  0.00000000000E+00  0.15984681322E+03  0.15984681322E+03  0.00000000000E+00 0. -1.
        2   -1    0    0  503    0  0.00000000000E+00  0.00000000000E+00 -0.14709039464E+03  0.14709039464E+03  0.00000000000E+00 0. -1.
       24    2    1    2    0    0 -0.19050808192E+01  0.23018644986E+02 -0.10965457585E+03  0.12492149629E+03  0.55206583675E+02 0.  0.
      -11    1    3    3    0    0  0.60348497130E+01  0.38087336539E+02 -0.51585296709E+02  0.64405802939E+02  0.00000000000E+00 0.  1.
       12    1    3    3    0    0 -0.79399305323E+01 -0.15068691553E+02 -0.58069279141E+02  0.60515693352E+02  0.00000000000E+00 0. -1.
        1    1    1    2  501    0 -0.35845464566E+02 -0.29719727422E+01 -0.14354177698E+02  0.38726894651E+02  0.00000000000E+00 0. -1.
       21    1    1    2  503  502  0.37750545385E+02 -0.20046672243E+02  0.13676517213E+03  0.14328881692E+03  0.00000000000E+00 0. -1.
</event>
<event>
 7   1  0.1436400E+01  0.8040000E+02  0.7546772E-02  0.1297830E+00
       21   -1    0    0  501  502  0.00000000000E+00  0.00000000000E+00  0.41565756951E+02  0.41565756951E+02  0.00000000000E+00 0. -1.
        2   -1    0    0  503    0  0.00000000000E+00  0.00000000000E+00 -0.63605837403E+03  0.63605837403E+03  0.00000000000E+00 0. -1.
       24    2    1    2    0    0  0.10405305211E+02  0.31782327350E+01 -0.16160990186E+03  0.18052586441E+03  0.79708567934E+02 0.  0.
      -11    1    3    3    0    0  0.42708217079E+02 -0.59049778731E+01 -0.11709623180E+03  0.12478136107E+03  0.00000000000E+00 0.  1.
       12    1    3    3    0    0 -0.32302911867E+02  0.90832106081E+01 -0.44513670062E+02  0.55744503338E+02  0.00000000000E+00 0. -1.
        1    1    1    2  501    0  0.17054966919E+02 -0.34396342652E+02 -0.45036279533E+03  0.45199626957E+03  0.00000000000E+00 0. -1.
       21    1    1    2  503  502 -0.27460272131E+02  0.31218109917E+02  0.17480080117E+02  0.45101996998E+02  0.00000000000E+00 0. -1.
</event>
<event>
 7   1  0.1436400E+01  0.8040000E+02  0.7546772E-02  0.1297830E+00
       21   -1    0    0  501  502  0.00000000000E+00  0.00000000000E+00  0.12914335929E+03  0.12914335929E+03  0.00000000000E+00 0.  1.
        2   -1    0    0  503    0  0.00000000000E+00  0.00000000000E+00 -0.25875746425E+03  0.25875746425E+03  0.00000000000E+00 0. -1.
       24    2    1    2    0    0  0.35303710461E+02  0.49254790727E+01 -0.14131287356E+03  0.16250164565E+03  0.71880764382E+02 0.  0.
      -11    1    3    3    0    0 -0.84867079504E+01  0.25693602408E+02 -0.79343819657E+02  0.83830943775E+02  0.00000000000E+00 0.  1.
       12    1    3    3    0    0  0.43790418411E+02 -0.20768123335E+02 -0.61969053903E+02  0.78670701873E+02  0.00000000000E+00 0. -1.
        1    1    1    2  501    0 -0.81289630105E+02 -0.19039622935E+02 -0.83911010325E+02  0.11837047291E+03  0.00000000000E+00 0. -1.
       21    1    1    2  503  502  0.45985919644E+02  0.14114143863E+02  0.95609778927E+02  0.10702870498E+03  0.00000000000E+00 0.  1.
</event>
<event>
 7   1  0.1436400E+01  0.8040000E+02  0.7546772E-02  0.1297830E+00
       -3   -1    0    0    0  502  0.00000000000E+00  0.00000000000E+00  0.96601472110E+03  0.96601472110E+03  0.00000000000E+00 0.  1.
       -1   -1    0    0    0  501  0.00000000000E+00  0.00000000000E+00 -0.38415795904E+02  0.38415795904E+02  0.00000000000E+00 0.  1.
       24    2    1    2    0    0  0.15534325228E+02  0.12538707234E+03  0.14238264495E+03  0.20641326698E+03  0.79814698091E+02 0.  0.
      -11    1    3    3    0    0  0.38812996329E+02  0.66107980024E+02  0.11232307046E+03  0.13598965352E+03  0.00000000000E+00 0.  1.
       12    1    3    3    0    0 -0.23278671101E+02  0.59279092320E+02  0.30059574493E+02  0.70423613464E+02  0.00000000000E+00 0. -1.
       -2    1    1    2    0  502 -0.27605812332E+02 -0.93819719055E+02  0.41977738254E+03  0.43101887597E+03  0.00000000000E+00 0.  1.
       -3    1    1    2    0  501  0.12071487104E+02 -0.31567353290E+02  0.36543889771E+03  0.36699837405E+03  0.00000000000E+00 0.  1.
</event>
<event>
 7   1  0.1436400E+01  0.8040000E+02  0.7546772E-02  0.1297830E+00
        2   -1    0    0  503    0  0.00000000000E+00  0.00000000000E+00  0.89281188562E+03  0.89281188562E+03  0.00000000000E+00 0. -1.
       21   -1    0    0  501  502  0.00000000000E+00  0.00000000000E+00 -0.39406019266E+03  0.39406019266E+03  0.00000000000E+00 0.  1.
       24    2    1    2    0    0  0.10403400821E+02  0.57868720703E+01  0.88190419512E+03  0.88561422717E+03  0.80098884779E+02 0.  0.
      -11    1    3    3    0    0 -0.30670867676E+02 -0.98824577347E-01  0.18933741022E+03  0.19180554424E+03  0.00000000000E+00 0.  1.
       12    1    3    3    0    0  0.41074268497E+02  0.58856966477E+01  0.69256678490E+03  0.69380868293E+03  0.00000000000E+00 0. -1.
        1    1    1    2  501    0  0.13732795060E+02 -0.43746975051E+02 -0.62772662010E+02  0.77735413951E+02  0.00000000000E+00 0. -1.
       21    1    1    2  503  502 -0.24136195881E+02  0.37960102981E+02 -0.32037984016E+03  0.32352243716E+03  0.00000000000E+00 0.  1.
</event>
<event>
 7   1  0.1436400E+01  0.8040000E+02  0.7546772E-02  0.1297830E+00
        2   -1    0    0  503    0  0.00000000000E+00  0.00000000000E+00  0.85793903197E+03  0.85793903197E+03  0.00000000000E+00 0. -1.
       21   -1    0    0  501  502  0.00000000000E+00  0.00000000000E+00 -0.75347335803E+02  0.75347335803E+02  0.00000000000E+00 0. -1.
       24    2    1    2    0    0  0.48006941029E+02  0.96238139326E+01  0.71784564027E+03  0.72377977531E+03  0.78469839448E+02 0.  0.
      -11    1    3    3    0    0  0.17391031683E+02 -0.26044468681E+02  0.11766821786E+03  0.12176441117E+03  0.00000000000E+00 0.  1.
       12    1    3    3    0    0  0.30615909346E+02  0.35668282613E+02  0.60017742241E+03  0.60201536414E+03  0.00000000000E+00 0. -1.
        1    1    1    2  501    0  0.27019731984E+02  0.27277468016E+02  0.10853325851E+03  0.11512425627E+03  0.00000000000E+00 0. -1.
       21    1    1    2  503  502 -0.75026673012E+02 -0.36901281949E+02 -0.43787202619E+02  0.94382336197E+02  0.00000000000E+00 0. -1.
</event>
<event>
 7   1  0.1436400E+01  0.8040000E+02  0.7546772E-02  0.1297830E+00
       21   -1    0    0  501  502  0.00000000000E+00  0.00000000000E+00  0.97205405738E+02  0.97205405738E+02  0.00000000000E+00 0. -1.
        2   -1    0    0  503    0  0.00000000000E+00  0.00000000000E+00 -0.13187542356E+03  0.13187542356E+03  0.00000000000E+00 0. -1.
       24    2    1    2    0    0 -0.54702806713E+02 -0.47619161994E+02  0.27033115133E+02  0.11243206468E+03  0.81548747399E+02 0.  0.
      -11    1    3    3    0    0 -0.12740519662E+02 -0.43242909562E+01 -0.27831323570E+02  0.30912827518E+02  0.00000000000E+00 0.  1.
       12    1    3    3    0    0 -0.41962287050E+02 -0.43294871038E+02  0.54864438702E+02  0.81519237158E+02  0.00000000000E+00 0. -1.
        1    1    1    2  501    0  0.24203825441E+02  0.44396748922E+02 -0.68591895035E+02  0.85215870267E+02  0.00000000000E+00 0. -1.
       21    1    1    2  503  502  0.30498981272E+02  0.32224130723E+01  0.68887620791E+01  0.31432894356E+02  0.00000000000E+00 0.  1.
</event>
<event>
 7   1  0.1436400E+01  0.8040000E+02  0.7546772E-02  0.1297830E+00
       21   -1    0    0  501  502  0.00000000000E+00  0.00000000000E+00  0.61323766245E+01  0.61323766245E+01  0.00000000000E+00 0. -1.
        2   -1    0    0  503    0  0.00000000000E+00  0.00000000000E+00 -0.18815895046E+04  0.18815895046E+04  0.00000000000E+00 0. -1.
       24    2    1    2    0    0  0.14441912310E+02 -0.14902449158E+02 -0.14538682576E+04  0.14562557627E+04  0.80729698035E+02 0.  0.
      -11    1    3    3    0    0  0.27533703212E+02  0.26679208582E+02 -0.54826672668E+03  0.54960557545E+03  0.00000000000E+00 0.  1.
       12    1    3    3    0    0 -0.13091790902E+02 -0.41581657741E+02 -0.90560153096E+03  0.90665018730E+03  0.00000000000E+00 0. -1.
        1    1    1    2  501    0 -0.24951435797E+02 -0.29901591022E+02 -0.11435152440E+03  0.12080128487E+03  0.00000000000E+00 0. -1.
       21    1    1    2  503  502  0.10509523487E+02  0.44804040180E+02 -0.30723734589E+03  0.31066483356E+03  0.00000000000E+00 0. -1.
</event>
<event>
 7   1  0.1436400E+01  0.8040000E+02  0.7546772E-02  0.1297830E+00
       21   -1    0    0  501  502  0.00000000000E+00  0.00000000000E+00  0.22317179134E+03  0.22317179134E+03  0.00000000000E+00 0.  1.
       -1   -1    0    0    0  501  0.00000000000E+00  0.00000000000E+00 -0.36935414047E+03  0.36935414047E+03  0.00000000000E+00 0.  1.
       24    2    1    2    0    0  0.17202122900E+02 -0.19099040851E+02 -0.18818841718E+03  0.20621480618E+03  0.80305538643E+02 0.  0.
      -11    1    3    3    0    0  0.36764659520E+02 -0.38316866578E+02 -0.15058877131E+03  0.15967717588E+03  0.00000000000E+00 0.  1.
       12    1    3    3    0    0 -0.19562536620E+02  0.19217825727E+02 -0.37599645871E+02  0.46537630304E+02  0.00000000000E+00 0. -1.
       -2    1    1    2    0  503 -0.14228438812E+02 -0.43198503233E+02 -0.16445873513E+03  0.17063186899E+03  0.00000000000E+00 0.  1.
       21    1    1    2  503  502 -0.29736840886E+01  0.62297544084E+02  0.20646480317E+03  0.21567925664E+03  0.00000000000E+00 0.  1.
</event>
<event>
 7   1  0.1436400E+01  0.8040000E+02  0.7546772E-02  0.1297830E+00
       -1   -1    0    0    0  502  0.00000000000E+00  0.00000000000E+00  0.31192566359E+02  0.31192566359E+02  0.00000000000E+00 0. -1.
        2   -1    0    0  502    0  0.00000000000E+00  0.00000000000E+00 -0.96008083616E+03  0.96008083616E+03  0.00000000000E+00 0. -1.
       24    2    1    2    0    0 -0.48826301223E+02 -0.49790450299E+02 -0.57454108731E+03  0.58536061409E+03  0.87672634804E+02 0.  0.
      -11    1    3    3    0    0 -0.60103336447E+01 -0.64618111803E+02 -0.38837510034E+03  0.39375987994E+03  0.00000000000E+00 0.  1.
       12    1    3    3    0    0 -0.42815967578E+02  0.14827661504E+02 -0.18616598697E+03  0.19160073416E+03  0.00000000000E+00 0. -1.
        1    1    1    2  501    0 -0.53604756788E+01 -0.36137369654E+02 -0.27391338721E+03  0.27633890041E+03  0.00000000000E+00 0. -1.
       -1    1    1    2    0  501  0.54186776902E+02  0.85927819953E+02 -0.80433795281E+02  0.12957388802E+03  0.00000000000E+00 0. -1.
</event>
<event>
 7   1  0.1436400E+01  0.8040000E+02  0.7546772E-02  0.1297830E+00
       -3   -1    0    0    0  502  0.00000000000E+00  0.00000000000E+00  0.87296282249E+02  0.87296282249E+02  0.00000000000E+00 0. -1.
        2   -1    0    0  502    0  0.00000000000E+00  0.00000000000E+00 -0.11946477802E+04  0.11946477802E+04  0.00000000000E+00 0. -1.
       24    2    1    2    0    0  0.91588949058E+02 -0.29514842686E+02 -0.87803292860E+03  0.88691955482E+03  0.80154921707E+02 0.  0.
      -11    1    3    3    0    0 -0.87788735853E+01  0.11142073085E+02 -0.55289283237E+02  0.57079937411E+02  0.00000000000E+00 0.  1.
       12    1    3    3    0    0  0.10036782264E+03 -0.40656915771E+02 -0.82274364537E+03  0.82983961740E+03  0.00000000000E+00 0. -1.
        1    1    1    2  501    0 -0.30166254957E+02  0.15063456155E+03 -0.20640501565E+03  0.25730099991E+03  0.00000000000E+00 0. -1.
       -3    1    1    2    0  501 -0.61422694102E+02 -0.12111971886E+03 -0.22913553748E+02  0.13772350777E+03  0.00000000000E+00 0. -1.
</event>
<event>
 7   1  0.1436400E+01  0.8040000E+02  0.7546772E-02  0.1297830E+00
        2   -1    0    0  503    0  0.00000000000E+00  0.00000000000E+00  0.93607590294E+03  0.93607590294E+03  0.00000000000E+00 0. -1.
       21   -1    0    0  501  502  0.00000000000E+00  0.00000000000E+00 -0.16239574562E+02  0.16239574562E+02  0.00000000000E+00 0.  1.
       24    2    1    2    0    0 -0.56860638122E+02  0.43018355958E+02  0.36362054419E+03  0.37928079829E+03  0.80934002001E+02 0.  0.
      -11    1    3    3    0    0 -0.18680634074E+02  0.24477150671E+02  0.30062339256E+02  0.43033024945E+02  0.00000000000E+00 0.  1.
       12    1    3    3    0    0 -0.38180004048E+02  0.18541205287E+02  0.33355820493E+03  0.33624777335E+03  0.00000000000E+00 0. -1.
        1    1    1    2  501    0  0.25677262428E+02 -0.41696797007E+02  0.67865037061E+02  0.83687561451E+02  0.00000000000E+00 0. -1.
       21    1    1    2  503  502  0.31183375695E+02 -0.13215589516E+01  0.48835074713E+03  0.48934711776E+03  0.00000000000E+00 0.  1.
</event>
<event>
 7   1  0.1436400E+01  0.8040000E+02  0.7546772E-02  0.1297830E+00
        2   -1    0    0  503    0  0.00000000000E+00  0.00000000000E+00  0.62315899112E+03  0.62315899112E+03  0.00000000000E+00 0. -1.
       21   -1    0    0  501  502  0.00000000000E+00  0.00000000000E+00 -0.32746737937E+02  0.32746737937E+02  0.00000000000E+00 0.  1.
       24    2    1    2    0    0 -0.87674843479E+01  0.34733854425E+02  0.36480550598E+03  0.37490351493E+03  0.78652901320E+02 0.  0.
      -11    1    3    3    0    0  0.78445059168E+01  0.57173118969E+02  0.26856199968E+03  0.27469228143E+03  0.00000000000E+00 0.  1.
       12    1    3    3    0    0 -0.16611990265E+02 -0.22439264543E+02  0.96243506301E+02  0.10021123350E+03  0.00000000000E+00 0. -1.
        1    1    1    2  501    0  0.44891619851E+02 -0.62320800013E+02  0.22256775389E+03  0.23544754133E+03  0.00000000000E+00 0. -1.
       21    1    1    2  503  502 -0.36124135503E+02  0.27586945588E+02  0.30389933047E+01  0.45554672790E+02  0.00000000000E+00 0.  1.
</event>
<event>
 7   1  0.1436400E+01  0.8040000E+02  0.7546772E-02  0.1297830E+00
        1   -1    0    0  502    0  0.00000000000E+00  0.00000000000E+00  0.11729905956E+04  0.11729905956E+04  0.00000000000E+00 0. -1.
        2   -1    0    0  501    0  0.00000000000E+00  0.00000000000E+00 -0.13546293111E+02  0.13546293111E+02  0.00000000000E+00 0. -1.
       24    2    1    2    0    0  0.33764556976E+02  0.50684586739E+02  0.37663609632E+03  0.39042089868E+03  0.82853825709E+02 0.  0.
      -11    1    3    3    0    0  0.11730545935E+02  0.15570980515E+02  0.10885065049E+02  0.22328138822E+02  0.00000000000E+00 0.  1.
       12    1    3    3    0    0  0.22034011041E+02  0.35113606224E+02  0.36575103127E+03  0.36809275986E+03  0.00000000000E+00 0. -1.
        1    1    1    2  501    0  0.45577136595E+02 -0.51969182295E+00  0.36841279465E+03  0.37122167599E+03  0.00000000000E+00 0. -1.
        1    1    1    2  502    0 -0.79341693571E+02 -0.50164894916E+02  0.41439541156E+03  0.42489431408E+03  0.00000000000E+00 0. -1.
</event>
<event>
 7   1  0.1436400E+01  0.8040000E+02  0.7546772E-02  0.1297830E+00
       -1   -1    0    0    0  502  0.00000000000E+00  0.00000000000E+00  0.91143344512E+02  0.91143344512E+02  0.00000000000E+00 0. -1.
        2   -1    0    0  502    0  0.00000000000E+00  0.00000000000E+00 -0.78797813574E+03  0.78797813574E+03  0.00000000000E+00 0. -1.
       24    2    1    2    0    0 -0.61241397823E+02 -0.53728519759E+02 -0.32995409710E+02  0.11908589551E+03  0.80346068999E+02 0.  0.
      -11    1    3    3    0    0 -0.58748938969E+02 -0.52784945050E+02 -0.55432758299E+02  0.96490823121E+02  0.00000000000E+00 0.  1.
       12    1    3    3    0    0 -0.24924588540E+01 -0.94357470955E+00  0.22437348589E+02  0.22595072385E+02  0.00000000000E+00 0. -1.
        1    1    1    2  501    0  0.28325088084E+02  0.84280203408E+02 -0.69798117824E+03  0.70362148097E+03  0.00000000000E+00 0. -1.
       -1    1    1    2    0  501  0.32916309739E+02 -0.30551683649E+02  0.34141796728E+02  0.56414103772E+02  0.00000000000E+00 0. -1.
</event>
<event>
 7   1  0.1436400E+01  0.8040000E+02  0.7546772E-02  0.1297830E+00
       21   -1    0    0  501  502  0.00000000000E+00  0.00000000000E+00  0.71852644224E+03  0.71852644224E+03  0.00000000000E+00 0. -1.
       21   -1    0    0  502  503  0.00000000000E+00  0.00000000000E+00 -0.11176121174E+03  0.11176121174E+03  0.00000000000E+00 0.  1.
       24    2    1    2    0    0 -0.43085581779E+02  0.19599369717E+03  0.68837988816E+02  0.22598850151E+03  0.77860371322E+02 0.  0.
      -11    1    3    3    0    0 -0.33722108507E+02  0.18483807733E+03  0.37730051376E+02  0.19163990245E+03  0.00000000000E+00 0.  1.
       12    1    3    3    0    0 -0.93634732719E+01  0.11155619841E+02  0.31107937440E+02  0.34348599062E+02  0.00000000000E+00 0. -1.
       -4    1    1    2    0  503  0.66963540783E+02 -0.17723927943E+02  0.53392679836E+02  0.87458742708E+02  0.00000000000E+00 0.  1.
        3    1    1    2  501    0 -0.23877959004E+02 -0.17826976923E+03  0.48453456184E+03  0.51684040976E+03  0.00000000000E+00 0. -1.
</event>
<event>
 7   1  0.1436400E+01  0.8040000E+02  0.7546772E-02  0.1297830E+00
       21   -1    0    0  501  502  0.00000000000E+00  0.00000000000E+00  0.36974938691E+02  0.36974938691E+02  0.00000000000E+00 0. -1.
        2   -1    0    0  503    0  0.00000000000E+00  0.00000000000E+00 -0.11284889942E+04  0.11284889942E+04  0.00000000000E+00 0. -1.
       24    2    1    2    0    0 -0.30145228262E+02  0.33373357519E+02 -0.83017765535E+03  0.83523533553E+03  0.80003815511E+02 0.  0.
      -11    1    3    3    0    0 -0.34101182479E+02 -0.19145010824E+02 -0.35688337212E+03  0.35901972562E+03  0.00000000000E+00 0.  1.
       12    1    3    3    0    0  0.39559542177E+01  0.52518368343E+02 -0.47329428323E+03  0.47621560992E+03  0.00000000000E+00 0. -1.
        1    1    1    2  501    0 -0.43266832789E+02 -0.12736117877E+02 -0.24891227300E+03  0.25296550589E+03  0.00000000000E+00 0. -1.
       21    1    1    2  503  502  0.73412061051E+02 -0.20637239642E+02 -0.12424127153E+02  0.77263091469E+02  0.00000000000E+00 0. -1.
</event>
<event>
 7   1  0.1436400E+01  0.8040000E+02  0.7546772E-02  0.1297830E+00
       21   -1    0    0  501  502  0.00000000000E+00  0.00000000000E+00  0.14668152325E+02  0.14668152325E+02  0.00000000000E+00 0.  1.
        2   -1    0    0  503    0  0.00000000000E+00  0.00000000000E+00 -0.83660728388E+03  0.83660728388E+03  0.00000000000E+00 0. -1.
       24    2    1    2    0    0  0.58116954411E+02 -0.11858290357E+01 -0.71368449868E+03  0.72054344358E+03  0.80363572897E+02 0.  0.
      -11    1    3    3    0    0  0.68563491498E+02  0.66839222001E+01 -0.35509357742E+03  0.36171408033E+03  0.00000000000E+00 0.  1.
       12    1    3    3    0    0 -0.10446537087E+02 -0.78697512358E+01 -0.35859092126E+03  0.35882936325E+03  0.00000000000E+00 0. -1.
        1    1    1    2  501    0 -0.28144710661E+02  0.14003949344E+02 -0.85173933759E+02  0.90790056324E+02  0.00000000000E+00 0. -1.
       21    1    1    2  503  502 -0.29972243750E+02 -0.12818120309E+02 -0.23080699112E+02  0.39941936297E+02  0.00000000000E+00 0.  1.
</event>
<event>
 7   1  0.1436400E+01  0.8040000E+02  0.7546772E-02  0.1297830E+00
       21   -1    0    0  501  502  0.00000000000E+00  0.00000000000E+00  0.75343161561E+02  0.75343161561E+02  0.00000000000E+00 0.  1.
        2   -1    0    0  503    0  0.00000000000E+00  0.00000000000E+00 -0.20180694061E+03  0.20180694061E+03  0.00000000000E+00 0. -1.
       24    2    1    2    0    0  0.31301517883E+02  0.52546116359E+02 -0.30735526038E+02  0.10658040233E+03  0.81693514028E+02 0.  0.
      -11    1    3    3    0    0  0.16191102218E+02 -0.10691625811E+02  0.17098981334E+02  0.25861898928E+02  0.00000000000E+00 0.  1.
       12    1    3    3    0    0  0.15110415665E+02  0.63237742169E+02 -0.47834507372E+02  0.80718503404E+02  0.00000000000E+00 0. -1.
        1    1    1    2  501    0  0.44927985384E+02 -0.19478345708E+02 -0.77908060074E+01  0.49584538724E+02  0.00000000000E+00 0. -1.
       21    1    1    2  503  502 -0.76229503268E+02 -0.33067770651E+02 -0.87937447002E+02  0.12098516111E+03  0.00000000000E+00 0.  1.
</event>
<event>
 7   1  0.1436400E+01  0.8040000E+02  0.7546772E-02  0.1297830E+00
       21   -1    0    0  501  502  0.00000000000E+00  0.00000000000E+00  0.20743693873E+02  0.20743693873E+02  0.00000000000E+00 0. -1.
        2   -1    0    0  503    0  0.00000000000E+00  0.00000000000E+00 -0.73537260828E+03  0.73537260828E+03  0.00000000000E+00 0. -1.
       24    2    1    2    0    0 -0.73091604397E+02  0.30407149985E+02 -0.57303307783E+03  0.58391190461E+03  0.79493563589E+02 0.  0.
      -11    1    3    3    0    0  0.96563456662E+01  0.25215950951E+02 -0.95901237602E+02  0.99629998332E+02  0.00000000000E+00 0.  1.
       12    1    3    3    0    0 -0.82747950063E+02  0.51911990339E+01 -0.47713184023E+03  0.48428190628E+03  0.00000000000E+00 0. -1.
        1    1    1    2  501    0  0.47141260125E+02 -0.36482702758E+01 -0.12033747596E+03  0.12929314136E+03  0.00000000000E+00 0. -1.
       21    1    1    2  503  502  0.25950344271E+02 -0.26758879710E+02 -0.21258360613E+02  0.42911256181E+02  0.00000000000E+00 0. -1.
</event>
<event>
 7   1  0.1436400E+01  0.8040000E+02  0.7546772E-02  0.1297830E+00
       21   -1    0    0  501  502  0.00000000000E+00  0.00000000000E+00  0.17824080409E+03  0.17824080409E+03  0.00000000000E+00 0. -1.
        2   -1    0    0  503    0  0.00000000000E+00  0.00000000000E+00 -0.18224670506E+04  0.18224670506E+04  0.00000000000E+00 0. -1.
       24    2    1    2    0    0  0.35956645665E+02 -0.57411875397E+02 -0.72039887144E+03  0.72812997758E+03  0.81300224304E+02 0.  0.
      -11    1    3    3    0    0  0.56657044021E+02 -0.34950933732E+02 -0.33673794268E+03  0.34325505159E+03  0.00000000000E+00 0.  1.
       12    1    3    3    0    0 -0.20700398356E+02 -0.22460941665E+02 -0.38366092877E+03  0.38487492599E+03  0.00000000000E+00 0. -1.
        1    1    1    2  501    0 -0.45088904177E+02 -0.28599886192E+03 -0.87982401579E+03  0.92623898485E+03  0.00000000000E+00 0. -1.
       21    1    1    2  503  502  0.91322585118E+01  0.34341073732E+03 -0.44003359246E+02  0.34633889224E+03  0.00000000000E+00 0. -1.
</event>
<event>
 7   1  0.1436400E+01  0.8040000E+02  0.7546772E-02  0.1297830E+00
       21   -1    0    0  501  502  0.00000000000E+00  0.00000000000E+00  0.66658619277E+03  0.66658619277E+03  0.00000000000E+00 0. -1.
       21   -1    0    0  502  503  0.00000000000E+00  0.00000000000E+00 -0.17631255488E+03  0.17631255488E+03  0.00000000000E+00 0.  1.
       24    2    1    2    0    0 -0.97087913148E+02 -0.10838205891E+02  0.12895640276E+03  0.18204005367E+03  0.83458359322E+02 0.  0.
      -11    1    3    3    0    0 -0.69524911863E+02  0.27443343866E+02  0.49545251757E+02  0.89674870860E+02  0.00000000000E+00 0.  1.
       12    1    3    3    0    0 -0.27563001285E+02 -0.38281549757E+02  0.79411151007E+02  0.92365182812E+02  0.00000000000E+00 0. -1.
       -4    1    1    2    0  503 -0.53978719089E+02  0.58233150561E+02 -0.12574095953E+03  0.14871311591E+03  0.00000000000E+00 0.  1.
        3    1    1    2  501    0  0.15106663224E+03 -0.47394944670E+02  0.48705819466E+03  0.51214557808E+03  0.00000000000E+00 0. -1.
</event>
<event>
 7   1  0.1436400E+01  0.8040000E+02  0.7546772E-02  0.1297830E+00
       21   -1    0    0  501  502  0.00000000000E+00  0.00000000000E+00  0.16715944500E+03  0.16715944500E+03  0.00000000000E+00 0. -1.
        2   -1    0    0  503    0  0.00000000000E+00  0.00000000000E+00 -0.34740054696E+03  0.34740054696E+03  0.00000000000E+00 0. -1.
       24    2    1    2    0    0 -0.34698994981E+01 -0.35716333371E+02 -0.22445272923E+03  0.24142488852E+03  0.81358788512E+02 0.  0.
      -11    1    3    3    0    0 -0.12775476375E+02  0.17458622016E+02 -0.18344377719E+02  0.28364281645E+02  0.00000000000E+00 0.  1.
       12    1    3    3    0    0  0.93055768773E+01 -0.53174955387E+02 -0.20610835151E+03  0.21306060688E+03  0.00000000000E+00 0. -1.
        1    1    1    2  501    0  0.29649327149E+02  0.58496935850E+01 -0.10990447808E+03  0.11398375242E+03  0.00000000000E+00 0. -1.
       21    1    1    2  503  502 -0.26179427651E+02  0.29866639786E+02  0.15411610534E+03  0.15915135101E+03  0.00000000000E+00 0. -1.
</event>
<event>
 7   1  0.1436400E+01  0.8040000E+02  0.7546772E-02  0.1297830E+00
        2   -1    0    0  503    0  0.00000000000E+00  0.00000000000E+00  0.39712765514E+03  0.39712765514E+03  0.00000000000E+00 0. -1.
       21   -1    0    0  501  502  0.00000000000E+00  0.00000000000E+00 -0.50888661548E+02  0.50888661548E+02  0.00000000000E+00 0. -1.
       24    2    1    2    0    0 -0.26904565641E+02  0.58881394079E+02  0.17848469075E+03  0.20435072557E+03  0.75574863455E+02 0.  0.
      -11    1    3    3    0    0 -0.18317366757E+02  0.47725724014E+02  0.18265046775E+03  0.18966935447E+03  0.00000000000E+00 0.  1.
       12    1    3    3    0    0 -0.85871988836E+01  0.11155670065E+02 -0.41657769953E+01  0.14681371095E+02  0.00000000000E+00 0. -1.
        1    1    1    2  501    0 -0.47597897928E+02  0.28530892567E+02  0.87265710926E+02  0.10341603368E+03  0.00000000000E+00 0. -1.
       21    1    1    2  503  502  0.74502463569E+02 -0.87412286646E+02  0.80488591909E+02  0.14024955744E+03  0.00000000000E+00 0. -1.
</event>
<event>
 7   1  0.1436400E+01  0.8040000E+02  0.7546772E-02  0.1297830E+00
       21   -1    0    0  501  502  0.00000000000E+00  0.00000000000E+00  0.49395497958E+02  0.49395497958E+02  0.00000000000E+00 0. -1.
        2   -1    0    0  503    0  0.00000000000E+00  0.00000000000E+00 -0.29535958584E+03  0.29535958584E+03  0.00000000000E+00 0. -1.
       24    2    1    2    0    0  0.56202749864E+02  0.31248175389E+02 -0.15749055046E+03  0.18731835029E+03  0.78419980333E+02 0.  0.
      -11    1    3    3    0    0  0.86763869283E+01 -0.22487192525E+02 -0.16756436366E+02  0.29355266605E+02  0.00000000000E+00 0.  1.
       12    1    3    3    0    0  0.47526362936E+02  0.53735367914E+02 -0.14073411409E+03  0.15796308369E+03  0.00000000000E+00 0. -1.
        1    1    1    2  501    0 -0.81289868207E+02 -0.52850579528E+02 -0.62505549836E+02  0.11536104277E+03  0.00000000000E+00 0. -1.
       21    1    1    2  503  502  0.25087118343E+02  0.21602404138E+02 -0.25967987592E+02  0.42075690735E+02  0.00000000000E+00 0. -1.
</event>
<event>
 7   1  0.1436400E+01  0.8040000E+02  0.7546772E-02  0.1297830E+00
        2   -1    0    0  503    0  0.00000000000E+00  0.00000000000E+00  0.70616079412E+03  0.70616079412E+03  0.00000000000E+00 0. -1.
       21   -1    0    0  501  502  0.00000000000E+00  0.00000000000E+00 -0.11869582602E+02  0.11869582602E+02  0.00000000000E+00 0.  1.
       24    2    1    2    0    0 -0.52857652770E+01 -0.70601578872E+01  0.39777444598E+03  0.40547497371E+03  0.78151514883E+02 0.  0.
      -11    1    3    3    0    0 -0.16857362878E+02 -0.58847713271E+01  0.17427841971E+02  0.24950568983E+02  0.00000000000E+00 0.  1.
       12    1    3    3    0    0  0.11571597601E+02 -0.11753865601E+01  0.38034660401E+03  0.38052440472E+03  0.00000000000E+00 0. -1.
        1    1    1    2  501    0  0.34597144435E+02  0.20324326658E+02  0.26319679594E+03  0.26623785240E+03  0.00000000000E+00 0. -1.
       21    1    1    2  503  502 -0.29311379158E+02 -0.13264168770E+02  0.33319969587E+02  0.46317550610E+02  0.00000000000E+00 0.  1.
</event>
<event>
 7   1  0.1436400E+01  0.8040000E+02  0.7546772E-02  0.1297830E+00
        1   -1    0    0  501    0  0.00000000000E+00  0.00000000000E+00  0.11821719239E+04  0.11821719239E+04  0.00000000000E+00 0.  1.
       -1   -1    0    0    0  502  0.00000000000E+00  0.00000000000E+00 -0.11323815349E+02  0.11323815349E+02  0.00000000000E+00 0. -1.
       24    2    1    2    0    0  0.13669796407E+01 -0.21940886189E+02  0.72154050944E+03  0.72611812746E+03  0.78380846798E+02 0.  0.
      -11    1    3    3    0    0  0.22942660411E+02 -0.27370820972E+02  0.15185337784E+03  0.15599671749E+03  0.00000000000E+00 0.  1.
       12    1    3    3    0    0 -0.21575680771E+02  0.54299347834E+01  0.56968713161E+03  0.57012140997E+03  0.00000000000E+00 0. -1.
       -2    1    1    2    0  502  0.61423068833E+02  0.19276974442E+02  0.19196309153E+03  0.20247030310E+03  0.00000000000E+00 0.  1.
        1    1    1    2  501    0 -0.62790048474E+02  0.26639117463E+01  0.25734450761E+03  0.26490730871E+03  0.00000000000E+00 0. -1.
</event>
<event>
 7   1  0.1436400E+01  0.8040000E+02  0.7546772E-02  0.1297830E+00
        2   -1    0    0  503    0  0.00000000000E+00  0.00000000000E+00  0.14300131505E+04  0.14300131505E+04  0.00000000000E+00 0. -1.
       21   -1    0    0  501  502  0.00000000000E+00  0.00000000000E+00 -0.32258986715E+03  0.32258986715E+03  0.00000000000E+00 0.  1.
       24    2    1    2    0    0  0.14487732222E+02  0.73538795741E+00  0.13810745016E+04  0.13835846669E+04  0.82032409595E+02 0.  0.
      -11    1    3    3    0    0  0.12606289693E+02  0.17716990045E+01  0.31047997762E+02  0.33556454256E+02  0.00000000000E+00 0.  1.
       12    1    3    3    0    0  0.18814425288E+01 -0.10363110471E+01  0.13500265038E+04  0.13500282126E+04  0.00000000000E+00 0. -1.
        1    1    1    2  501    0  0.59288246242E+02  0.72306751839E+02 -0.20952269391E+02  0.95824631993E+02  0.00000000000E+00 0. -1.
       21    1    1    2  503  502 -0.73775978463E+02 -0.73042139797E+02 -0.25269894891E+03  0.27319371875E+03  0.00000000000E+00 0.  1.
</event>
<event>
 7   1  0.1436400E+01  0.8040000E+02  0.7546772E-02  0.1297830E+00
       21   -1    0    0  501  502  0.00000000000E+00  0.00000000000E+00  0.34883978285E+03  0.34883978285E+03  0.00000000000E+00 0. -1.
        4   -1    0    0  503    0  0.00000000000E+00  0.00000000000E+00 -0.20076875926E+03  0.20076875926E+03  0.00000000000E+00 0. -1.
       24    2    1    2    0    0 -0.40443989560E+02  0.47893469595E+02 -0.10081406029E+03  0.14322983714E+03  0.80136201388E+02 0.  0.
      -11    1    3    3    0    0 -0.64491498904E+01 -0.21358568179E+02 -0.36560891187E+02  0.42830815231E+02  0.00000000000E+00 0.  1.
       12    1    3    3    0    0 -0.33994839669E+02  0.69252037774E+02 -0.64253169103E+02  0.10039902191E+03  0.00000000000E+00 0. -1.
        3    1    1    2  501    0  0.39819130630E+02  0.12146838034E+02 -0.70242096104E+02  0.81652072254E+02  0.00000000000E+00 0. -1.
       21    1    1    2  503  502  0.62485892954E+00 -0.60040307630E+02  0.31912717999E+03  0.32472663272E+03  0.00000000000E+00 0. -1.
</event>
<event>
 7   1  0.1436400E+01  0.8040000E+02  0.7546772E-02  0.1297830E+00
        2   -1    0    0  501    0  0.00000000000E+00  0.00000000000E+00  0.12982833756E+04  0.12982833756E+04  0.00000000000E+00 0. -1.
        1   -1    0    0  502    0  0.00000000000E+00  0.00000000000E+00 -0.35319395015E+02  0.35319395015E+02  0.00000000000E+00 0.  1.
       24    2    1    2    0    0  0.67198943133E+02 -0.13858698058E+01  0.11135322484E+04  0.11183009326E+04  0.78264225351E+02 0.  0.
      -11    1    3    3    0    0  0.56287624802E+02  0.30747892377E+02  0.54585231797E+03  0.54960757148E+03  0.00000000000E+00 0.  1.
       12    1    3    3    0    0  0.10911318331E+02 -0.32133762183E+02  0.56767993047E+03  0.56869336113E+03  0.00000000000E+00 0. -1.
        1    1    1    2  501    0 -0.71046197979E+02 -0.57555340522E+02  0.64683200022E+02  0.11200042783E+03  0.00000000000E+00 0.  1.
        1    1    1    2  502    0  0.38472548457E+01  0.58941210328E+02  0.84748532092E+02  0.10330141014E+03  0.00000000000E+00 0. -1.
</event>
<event>
 7   1  0.1436400E+01  0.8040000E+02  0.7546772E-02  0.1297830E+00
        2   -1    0    0  501    0  0.00000000000E+00  0.00000000000E+00  0.72444392979E+03  0.72444392979E+03  0.00000000000E+00 0. -1.
        2   -1    0    0  502    0  0.00000000000E+00  0.00000000000E+00 -0.25910733426E+02  0.25910733426E+02  0.00000000000E+00 0. -1.
       24    2    1    2    0    0 -0.76906720153E+01  0.13984667519E+02  0.34211300730E+03  0.35182048577E+03  0.80508552846E+02 0.  0.
      -11    1    3    3    0    0  0.26359884545E+02  0.20015049400E+02  0.69004971389E+02  0.76531900487E+02  0.00000000000E+00 0.  1.
       12    1    3    3    0    0 -0.34050556560E+02 -0.60303818804E+01  0.27310803591E+03  0.27528858528E+03  0.00000000000E+00 0. -1.
        2    1    1    2  502    0  0.28548560311E+02  0.78385599150E+02  0.15776153578E+03  0.17846014856E+03  0.00000000000E+00 0. -1.
        1    1    1    2  501    0 -0.20857888296E+02 -0.92370266669E+02  0.19865865328E+03  0.22007402889E+03  0.00000000000E+00 0. -1.
</event>
<event>
 7   1  0.1436400E+01  0.8040000E+02  0.7546772E-02  0.1297830E+00
       21   -1    0    0  501  502  0.00000000000E+00  0.00000000000E+00  0.14724772838E+03  0.14724772838E+03  0.00000000000E+00 0. -1.
        2   -1    0    0  503    0  0.00000000000E+00  0.00000000000E+00 -0.15768647467E+04  0.15768647467E+04  0.00000000000E+00 0. -1.
       24    2    1    2    0    0  0.40928687469E+02 -0.52850486575E+01 -0.42474244449E+03  0.43409640395E+03  0.79564153833E+02 0.  0.
      -11    1    3    3    0    0 -0.17828448191E+02  0.16525301018E+02 -0.76837926041E+02  0.80591600163E+02  0.00000000000E+00 0.  1.
       12    1    3    3    0    0  0.58757135660E+02 -0.21810349676E+02 -0.34790451845E+03  0.35350480379E+03  0.00000000000E+00 0. -1.
        1    1    1    2  501    0 -0.17813131094E+03 -0.31168547447E+02 -0.11028170207E+04  0.11175453563E+04  0.00000000000E+00 0. -1.
       21    1    1    2  503  502  0.13720262347E+03  0.36453596105E+02  0.97942446898E+02  0.17247071479E+03  0.00000000000E+00 0. -1.
</event>
<event>
 7   1  0.1436400E+01  0.8040000E+02  0.7546772E-02  0.1297830E+00
        2   -1    0    0  503    0  0.00000000000E+00  0.00000000000E+00  0.11425842500E+04  0.11425842500E+04  0.00000000000E+00 0. -1.
       21   -1    0    0  502  503  0.00000000000E+00  0.00000000000E+00 -0.64568589163E+01  0.64568589163E+01  0.00000000000E+00 0. -1.
       24    2    1    2    0    0 -0.32342960942E+00  0.48845955811E+01  0.53294675688E+03  0.53895232592E+03  0.80083706619E+02 0.  0.
      -11    1    3    3    0    0 -0.12868037151E+02  0.78684873179E+01  0.52147581291E+03  0.52169389772E+03  0.00000000000E+00 0.  1.
       12    1    3    3    0    0  0.12544607542E+02 -0.29838917368E+01  0.11470943973E+02  0.17258428199E+02  0.00000000000E+00 0. -1.
        1    1    1    2  501    0  0.36617259855E+02 -0.22629890514E+02  0.18410392210E+03  0.18906927248E+03  0.00000000000E+00 0. -1.
       21    1    1    2  502  501 -0.36293830245E+02  0.17745294933E+02  0.41907671213E+03  0.42101951055E+03  0.00000000000E+00 0. -1.
</event>
<event>
 7   1  0.1436400E+01  0.8040000E+02  0.7546772E-02  0.1297830E+00
        2   -1    0    0  503    0  0.00000000000E+00  0.00000000000E+00  0.53062999667E+03  0.53062999667E+03  0.00000000000E+00 0. -1.
       21   -1    0    0  502  503  0.00000000000E+00  0.00000000000E+00 -0.50898588673E+02  0.50898588673E+02  0.00000000000E+00 0. -1.
       24    2    1    2    0    0 -0.72185703003E+02  0.34284100150E+02  0.39836717404E+03  0.41437261044E+03  0.81376161689E+02 0.  0.
      -11    1    3    3    0    0  0.40385920312E+01  0.12654936377E+02  0.69028447395E+01  0.14970200593E+02  0.00000000000E+00 0.  1.
       12    1    3    3    0    0 -0.76224295034E+02  0.21629163773E+02  0.39146432930E+03  0.39940240985E+03  0.00000000000E+00 0. -1.
        1    1    1    2  501    0  0.64610637539E+02  0.35089478031E+02  0.25691040676E+02  0.77883474003E+02  0.00000000000E+00 0. -1.
       21    1    1    2  502  501  0.75750654640E+01 -0.69373578181E+02  0.55673193282E+02  0.89272500898E+02  0.00000000000E+00 0. -1.
</event>
<event>
 7   1  0.1436400E+01  0.8040000E+02  0.7546772E-02  0.1297830E+00
        2   -1    0    0  501    0  0.00000000000E+00  0.00000000000E+00  0.29835836113E+03  0.29835836113E+03  0.00000000000E+00 0.  1.
        2   -1    0    0  502    0  0.00000000000E+00  0.00000000000E+00 -0.78162591403E+02  0.78162591403E+02  0.00000000000E+00 0. -1.
       24    2    1    2    0    0  0.78696292762E+01 -0.48855964672E+00 -0.52262202412E+02  0.96547917393E+02  0.80795994929E+02 0.  0.
      -11    1    3    3    0    0  0.14459125514E+02  0.38758260512E+02 -0.25673567858E+02  0.48686765707E+02  0.00000000000E+00 0.  1.
       12    1    3    3    0    0 -0.65894962373E+01 -0.39246820158E+02 -0.26588634554E+02  0.47861151686E+02  0.00000000000E+00 0. -1.
        2    1    1    2  502    0  0.74374128441E+01 -0.29449070076E+02  0.11318662262E+03  0.11719118729E+03  0.00000000000E+00 0.  1.
        1    1    1    2  501    0 -0.15307042120E+02  0.29937629722E+02  0.15927134951E+03  0.16278184784E+03  0.00000000000E+00 0. -1.
</event>
<event>
 7   1  0.1436400E+01  0.8040000E+02  0.7546772E-02  0.1297830E+00
       21   -1    0    0  501  502  0.00000000000E+00  0.00000000000E+00  0.30678368488E+02  0.30678368488E+02  0.00000000000E+00 0. -1.
       21   -1    0    0  502  503  0.00000000000E+00  0.00000000000E+00 -0.10894148992E+04  0.10894148992E+04  0.00000000000E+00 0.  1.
       24    2    1    2    0    0 -0.57939481139E+02 -0.65154272215E+02 -0.74234859240E+03  0.75163387252E+03  0.79183224334E+02 0.  0.
      -11    1    3    3    0    0 -0.20984209381E+02 -0.26528315484E+02 -0.57413329703E+03  0.57512879543E+03  0.00000000000E+00 0.  1.
       12    1    3    3    0    0 -0.36955271758E+02 -0.38625956731E+02 -0.16821529537E+03  0.17650507709E+03  0.00000000000E+00 0. -1.
       -4    1    1    2    0  503  0.12052482873E+02  0.85018312032E+02 -0.30542977856E+03  0.31727074457E+03  0.00000000000E+00 0.  1.
        3    1    1    2  501    0  0.45886998266E+02 -0.19864039817E+02 -0.10958159775E+02  0.51188650631E+02  0.00000000000E+00 0. -1.
</event>
<event>
 7   1  0.1436400E+01  0.8040000E+02  0.7546772E-02  0.1297830E+00
       21   -1    0    0  502  503  0.00000000000E+00  0.00000000000E+00  0.13239401379E+02  0.13239401379E+02  0.00000000000E+00 0.  1.
       21   -1    0    0  501  502  0.00000000000E+00  0.00000000000E+00 -0.11300847054E+04  0.11300847054E+04  0.00000000000E+00 0. -1.
       24    2    1    2    0    0 -0.37084502888E+02  0.74935854649E+02 -0.72314634827E+03  0.73254606158E+03  0.81807387565E+02 0.  0.
      -11    1    3    3    0    0  0.15915305772E+02 -0.75329571732E+01 -0.75742367179E+02  0.77762128234E+02  0.00000000000E+00 0.  1.
       12    1    3    3    0    0 -0.52999808661E+02  0.82468811822E+02 -0.64740398109E+03  0.65478393335E+03  0.00000000000E+00 0. -1.
       -4    1    1    2    0  503  0.46410615669E+02 -0.12148508151E+02 -0.10902991989E+03  0.11911781953E+03  0.00000000000E+00 0.  1.
        3    1    1    2  501    0 -0.93261127811E+01 -0.62787346498E+02 -0.28466903587E+03  0.29166022567E+03  0.00000000000E+00 0. -1.
</event>
<event>
 7   1  0.1436400E+01  0.8040000E+02  0.7546772E-02  0.1297830E+00
        3   -1    0    0  502    0  0.00000000000E+00  0.00000000000E+00  0.35153532858E+03  0.35153532858E+03  0.00000000000E+00 0. -1.
        2   -1    0    0  501    0  0.00000000000E+00  0.00000000000E+00 -0.11075045044E+03  0.11075045044E+03  0.00000000000E+00 0. -1.
       24    2    1    2    0    0  0.38124274753E+02  0.36266513222E+02 -0.62478774449E+02  0.11077718303E+03  0.74828248122E+02 0.  0.
      -11    1    3    3    0    0 -0.64840426331E+01 -0.17361373427E+02 -0.26366589263E+02  0.32228203882E+02  0.00000000000E+00 0.  1.
       12    1    3    3    0    0  0.44608317386E+02  0.53627886648E+02 -0.36112185186E+02  0.78548979149E+02  0.00000000000E+00 0. -1.
        1    1    1    2  502    0 -0.77425701169E+02 -0.78349722455E+02  0.13843369099E+03  0.17691044347E+03  0.00000000000E+00 0. -1.
        3    1    1    2  501    0  0.39301426416E+02  0.42083209233E+02  0.16482996161E+03  0.17459815251E+03  0.00000000000E+00 0. -1.
</event>
<event>
 7   1  0.1436400E+01  0.8040000E+02  0.7546772E-02  0.1297830E+00
       21   -1    0    0  501  502  0.00000000000E+00  0.00000000000E+00  0.29648052164E+02  0.29648052164E+02  0.00000000000E+00 0. -1.
        2   -1    0    0  503    0  0.00000000000E+00  0.00000000000E+00 -0.15759049858E+04  0.15759049858E+04  0.00000000000E+00 0. -1.
       24    2    1    2    0    0 -0.14251216930E+03 -0.50149337835E+02 -0.59986482915E+03  0.62319651364E+03  0.75573850494E+02 0.  0.
      -11    1    3    3    0    0 -0.40602699180E+02 -0.42516032191E+01 -0.64837617182E+02  0.76619657481E+02  0.00000000000E+00 0.  1.
       12    1    3    3    0    0 -0.10190947012E+03 -0.45897734616E+02 -0.53502721197E+03  0.54657685616E+03  0.00000000000E+00 0. -1.
        1    1    1    2  501    0  0.18173756778E+03  0.51805543131E+02 -0.90795561053E+03  0.92741347226E+03  0.00000000000E+00 0. -1.
       21    1    1    2  503  502 -0.39225398489E+02 -0.16562052964E+01 -0.38436493965E+02  0.54943052071E+02  0.00000000000E+00 0.  1.
</event>
<event>
 7   1  0.1436400E+01  0.8040000E+02  0.7546772E-02  0.1297830E+00
       21   -1    0    0  501  502  0.00000000000E+00  0.00000000000E+00  0.94697140240E+02  0.94697140240E+02  0.00000000000E+00 0.  1.
        2   -1    0    0  503    0  0.00000000000E+00  0.00000000000E+00 -0.16448659261E+03  0.16448659261E+03  0.00000000000E+00 0. -1.
       24    2    1    2    0    0 -0.51258921995E+02  0.26978286055E+02  0.52384364346E+01  0.98621957684E+02  0.79646370405E+02 0.  0.
      -11    1    3    3    0    0 -0.51695267998E+02 -0.32116804614E+00  0.31665965906E+02  0.60623735278E+02  0.00000000000E+00 0.  1.
       12    1    3    3    0    0  0.43634600342E+00  0.27299454101E+02 -0.26427529472E+02  0.37998222406E+02  0.00000000000E+00 0. -1.
        1    1    1    2  501    0  0.64509219142E+02  0.62092799012E+01 -0.98427555082E+02  0.11784726603E+03  0.00000000000E+00 0. -1.
       21    1    1    2  503  502 -0.13250297147E+02 -0.33187565956E+02  0.23399666279E+02  0.42714509134E+02  0.00000000000E+00 0.  1.
</event>
<event>
 7   1  0.1436400E+01  0.8040000E+02  0.7546772E-02  0.1297830E+00
       21   -1    0    0  501  502  0.00000000000E+00  0.00000000000E+00  0.10378049840E+03  0.10378049840E+03  0.00000000000E+00 0. -1.
       21   -1    0    0  502  503  0.00000000000E+00  0.00000000000E+00 -0.12567601682E+04  0.12567601682E+04  0.00000000000E+00 0.  1.
       24    2    1    2    0    0  0.48061216717E+01  0.10125463327E+03 -0.43759073733E+03  0.45716033827E+03  0.85054817178E+02 0.  0.
      -11    1    3    3    0    0 -0.20299612321E+02  0.10493241392E+03 -0.35948517188E+03  0.37503663095E+03  0.00000000000E+00 0.  1.
       12    1    3    3    0    0  0.25105733993E+02 -0.36777806505E+01 -0.78105565443E+02  0.82123707314E+02  0.00000000000E+00 0. -1.
       -4    1    1    2    0  503  0.11177788078E+03  0.83457854253E+01 -0.73380031944E+03  0.74231183176E+03  0.00000000000E+00 0.  1.
        3    1    1    2  501    0 -0.11658400245E+03 -0.10960041869E+03  0.18411386999E+02  0.16106849654E+03  0.00000000000E+00 0. -1.
</event>
<event>
 7   1  0.1436400E+01  0.8040000E+02  0.7546772E-02  0.1297830E+00
       21   -1    0    0  501  502  0.00000000000E+00  0.00000000000E+00  0.15756785873E+03  0.15756785873E+03  0.00000000000E+00 0.  1.
        2   -1    0    0  503    0  0.00000000000E+00  0.00000000000E+00 -0.10897610652E+04  0.10897610652E+04  0.00000000000E+00 0. -1.
       24    2    1    2    0    0 -0.45079993065E+01 -0.38580661892E+02 -0.71944266056E+03  0.72583643512E+03  0.87931787088E+02 0.  0.
      -11    1    3    3    0    0  0.15878656116E+02 -0.61587808427E+02 -0.54586645618E+03  0.54955925781E+03  0.00000000000E+00 0.  1.
       12    1    3    3    0    0 -0.20386655422E+02  0.23007146535E+02 -0.17357620438E+03  0.17627717730E+03  0.00000000000E+00 0. -1.
        1    1    1    2  501    0 -0.31744736505E+02 -0.14306675163E+02 -0.35958589354E+03  0.36126780106E+03  0.00000000000E+00 0. -1.
       21    1    1    2  503  502  0.36252735812E+02  0.52887337055E+02  0.14683534759E+03  0.16022468779E+03  0.00000000000E+00 0.  1.
</event>
<event>
 7   1  0.1436400E+01  0.8040000E+02  0.7546772E-02  0.1297830E+00
        2   -1    0    0  503    0  0.00000000000E+00  0.00000000000E+00  0.19624483196E+03  0.19624483196E+03  0.00000000000E+00 0. -1.
       -1   -1    0    0    0  501  0.00000000000E+00  0.00000000000E+00 -0.18008654724E+03  0.18008654724E+03  0.00000000000E+00 0.  1.
       24    2    1    2    0    0 -0.65814904305E+02 -0.15081178296E+03 -0.33545568615E+02  0.19102326240E+03  0.91042770703E+02 0.  0.
      -11    1    3    3    0    0 -0.68054594731E+02 -0.43897714954E+02 -0.18017127941E+02  0.82964173842E+02  0.00000000000E+00 0.  1.
       12    1    3    3    0    0  0.22396904256E+01 -0.10691406801E+03 -0.15528440675E+02  0.10805908856E+03  0.00000000000E+00 0. -1.
       21    1    1    2  503  502  0.39288934989E+02  0.18285374019E+02  0.13459411498E+02  0.45377649493E+02  0.00000000000E+00 0. -1.
       21    1    1    2  502  501  0.26525969316E+02  0.13252640894E+03  0.36244441842E+02  0.13993046730E+03  0.00000000000E+00 0. -1.
</event>
<event>
 7   1  0.1436400E+01  0.8040000E+02  0.7546772E-02  0.1297830E+00
       21   -1    0    0  501  502  0.00000000000E+00  0.00000000000E+00  0.10894433769E+04  0.10894433769E+04  0.00000000000E+00 0. -1.
       21   -1    0    0  502  503  0.00000000000E+00  0.00000000000E+00 -0.47304830431E+02  0.47304830431E+02  0.00000000000E+00 0.  1.
       24    2    1    2    0    0 -0.86992132569E+01 -0.92595450172E+02  0.34449249483E+03  0.36572438041E+03  0.80185096687E+02 0.  0.
      -11    1    3    3    0    0 -0.28783280521E+02 -0.23708215504E+02  0.21002134280E+03  0.21330616763E+03  0.00000000000E+00 0.  1.
       12    1    3    3    0    0  0.20084067264E+02 -0.68887234668E+02  0.13447115203E+03  0.15241821278E+03  0.00000000000E+00 0. -1.
       -4    1    1    2    0  503 -0.74971094879E+02 -0.55303673219E+02  0.59267451742E+02  0.11041644884E+03  0.00000000000E+00 0.  1.
        3    1    1    2  501    0  0.83670308136E+02  0.14789912339E+03  0.63837859993E+03  0.66060737810E+03  0.00000000000E+00 0. -1.
</event>
<event>
 7   1  0.1436400E+01  0.8040000E+02  0.7546772E-02  0.1297830E+00
       21   -1    0    0  501  502  0.00000000000E+00  0.00000000000E+00  0.16826884092E+03  0.16826884092E+03  0.00000000000E+00 0. -1.
        2   -1    0    0  503    0  0.00000000000E+00  0.00000000000E+00 -0.84016776725E+03  0.84016776725E+03  0.00000000000E+00 0. -1.
       24    2    1    2    0    0  0.17372673352E+03  0.25714174826E+02 -0.24218759463E+03  0.30977535136E+03  0.80397391667E+02 0.  0.
      -11    1    3    3    0    0  0.11069669899E+02 -0.16235230369E+02 -0.54299288183E+02  0.57745415350E+02  0.00000000000E+00 0.  1.
       12    1    3    3    0    0  0.16265706362E+03  0.41949405195E+02 -0.18788830645E+03  0.25202993601E+03  0.00000000000E+00 0. -1.
        1    1    1    2  501    0 -0.19325103294E+03 -0.21142368027E+03 -0.42419474855E+03  0.51184677298E+03  0.00000000000E+00 0. -1.
       21    1    1    2  503  502  0.19524299418E+02  0.18570950545E+03 -0.55165831476E+01  0.18681448384E+03  0.00000000000E+00 0. -1.
</event>
<event>
 7   1  0.1436400E+01  0.8040000E+02  0.7546772E-02  0.1297830E+00
        2   -1    0    0  503    0  0.00000000000E+00  0.00000000000E+00  0.16134262978E+04  0.16134262978E+04  0.00000000000E+00 0. -1.
       21   -1    0    0  501  502  0.00000000000E+00  0.00000000000E+00 -0.16177877375E+02  0.16177877375E+02  0.00000000000E+00 0. -1.
       24    2    1    2    0    0 -0.40028770047E+02  0.27975591610E+01  0.13135507525E+04  0.13166507021E+04  0.80891057605E+02 0.  0.
      -11    1    3    3    0    0 -0.25891876734E+01 -0.14538795239E+02  0.10307836143E+04  0.10308893927E+04  0.00000000000E+00 0.  1.
       12    1    3    3    0    0 -0.37439582373E+02  0.17336354400E+02  0.28276713816E+03  0.28576130938E+03  0.00000000000E+00 0. -1.
        1    1    1    2  501    0  0.43351771566E+01  0.32038466399E+02  0.87152803942E+01  0.33484521836E+02  0.00000000000E+00 0. -1.
       21    1    1    2  503  502  0.35693592890E+02 -0.34836025560E+02  0.27498238759E+03  0.27946895129E+03  0.00000000000E+00 0. -1.
</event>
<event>
 7   1  0.1436400E+01  0.8040000E+02  0.7546772E-02  0.1297830E+00
       21   -1    0    0  501  502  0.00000000000E+00  0.00000000000E+00  0.61416881070E+02  0.61416881070E+02  0.00000000000E+00 0. -1.
       -1   -1    0    0    0  501  0.00000000000E+00  0.00000000000E+00 -0.70257055281E+03  0.70257055281E+03  0.00000000000E+00 0.  1.
       24    2    1    2    0    0  0.11931174427E+02 -0.10112309790E+02 -0.38915615936E+03  0.40074986944E+03  0.94410432445E+02 0.  0.
      -11    1    3    3    0    0 -0.18964201605E+02  0.35040935822E+02 -0.19519921435E+03  0.19922409846E+03  0.00000000000E+00 0.  1.
       12    1    3    3    0    0  0.30895376031E+02 -0.45153245611E+02 -0.19395694501E+03  0.20152577098E+03  0.00000000000E+00 0. -1.
       -2    1    1    2    0  503 -0.42520956722E+02  0.17984803098E+02 -0.30122788285E+03  0.30474534009E+03  0.00000000000E+00 0.  1.
       21    1    1    2  503  502  0.30589782296E+02 -0.78724933081E+01  0.49230370473E+02  0.58492224344E+02  0.00000000000E+00 0. -1.
</event>
<event>
 7   1  0.1436400E+01  0.8040000E+02  0.7546772E-02  0.1297830E+00
       21   -1    0    0  501  502  0.00000000000E+00  0.00000000000E+00  0.69083111953E+02  0.69083111953E+02  0.00000000000E+00 0. -1.
        2   -1    0    0  503    0  0.00000000000E+00  0.00000000000E+00 -0.65851729183E+03  0.65851729183E+03  0.00000000000E+00 0. -1.
       24    2    1    2    0    0 -0.17559483964E+02  0.11965459566E+02 -0.45921436972E+03  0.46628872396E+03  0.78075790349E+02 0.  0.
      -11    1    3    3    0    0 -0.12563632442E+02 -0.31193695752E+02 -0.27350932150E+03  0.27556893959E+03  0.00000000000E+00 0.  1.
       12    1    3    3    0    0 -0.49958515228E+01  0.43159155319E+02 -0.18570504822E+03  0.19071978438E+03  0.00000000000E+00 0. -1.
        1    1    1    2  501    0  0.53452415409E+02  0.52210942637E+02 -0.16412962861E+03  0.18033767835E+03  0.00000000000E+00 0. -1.
       21    1    1    2  503  502 -0.35892931445E+02 -0.64176402204E+02  0.33909818451E+02  0.80974001475E+02  0.00000000000E+00 0. -1.
</event>
<event>
 7   1  0.1436400E+01  0.8040000E+02  0.7546772E-02  0.1297830E+00
       21   -1    0    0  501  502  0.00000000000E+00  0.00000000000E+00  0.68466049888E+02  0.68466049888E+02  0.00000000000E+00 0. -1.
        2   -1    0    0  503    0  0.00000000000E+00  0.00000000000E+00 -0.23728070231E+03  0.23728070231E+03  0.00000000000E+00 0. -1.
       24    2    1    2    0    0  0.29347514832E+02  0.32821901552E+02 -0.15244430385E+03  0.17529795537E+03  0.74508748013E+02 0.  0.
      -11    1    3    3    0    0 -0.15190562263E+02  0.60971974873E+01 -0.24322498813E+01  0.16548257870E+02  0.00000000000E+00 0.  1.
       12    1    3    3    0    0  0.44538077095E+02  0.26724704065E+02 -0.15001205397E+03  0.15874969750E+03  0.00000000000E+00 0. -1.
        1    1    1    2  501    0 -0.40296072878E+02 -0.70952012388E+00 -0.61780630328E+02  0.73763969470E+02  0.00000000000E+00 0. -1.
       21    1    1    2  503  502  0.10948558046E+02 -0.32112381428E+02  0.45410281755E+02  0.56684827365E+02  0.00000000000E+00 0. -1.
</event>
<event>
 7   1  0.1436400E+01  0.8040000E+02  0.7546772E-02  0.1297830E+00
        2   -1    0    0  503    0  0.00000000000E+00  0.00000000000E+00  0.54614442203E+02  0.54614442203E+02  0.00000000000E+00 0. -1.
       21   -1    0    0  501  502  0.00000000000E+00  0.00000000000E+00 -0.31211972860E+03  0.31211972860E+03  0.00000000000E+00 0. -1.
       24    2    1    2    0    0 -0.26607633180E+02  0.31040042761E+02 -0.10412931406E+02  0.91039551787E+02  0.80674162227E+02 0.  0.
      -11    1    3    3    0    0  0.22929880784E+02 -0.56887566031E+01 -0.16876192799E+02  0.29033554171E+02  0.00000000000E+00 0.  1.
       12    1    3    3    0    0 -0.49537513964E+02  0.36728799364E+02  0.64632613925E+01  0.62005997615E+02  0.00000000000E+00 0. -1.
        1    1    1    2  501    0 -0.36243831198E+02  0.15019111312E+02 -0.48624795811E+02  0.62478474470E+02  0.00000000000E+00 0. -1.
       21    1    1    2  503  502  0.62851464378E+02 -0.46059154073E+02 -0.19846755918E+03  0.21321614455E+03  0.00000000000E+00 0. -1.
</event>
<event>
 7   1  0.1436400E+01  0.8040000E+02  0.7546772E-02  0.1297830E+00
       21   -1    0    0  501  502  0.00000000000E+00  0.00000000000E+00  0.15882553889E+02  0.15882553889E+02  0.00000000000E+00 0. -1.
        2   -1    0    0  503    0  0.00000000000E+00  0.00000000000E+00 -0.81133077744E+03  0.81133077744E+03  0.00000000000E+00 0. -1.
       24    2    1    2    0    0 -0.65031173850E+01 -0.10878436657E+02 -0.70754558262E+03  0.71188835704E+03  0.77483227186E+02 0.  0.
      -11    1    3    3    0    0 -0.28251597720E+02  0.23367571567E+02 -0.27249862414E+03  0.27495398948E+03  0.00000000000E+00 0.  1.
       12    1    3    3    0    0  0.21748480335E+02 -0.34246008224E+02 -0.43504695848E+03  0.43693436756E+03  0.00000000000E+00 0. -1.
        1    1    1    2  501    0  0.39145499105E+02  0.14348923703E+02 -0.45738747567E+02  0.61889375021E+02  0.00000000000E+00 0. -1.
       21    1    1    2  503  502 -0.32642381720E+02 -0.34704870460E+01 -0.42163893365E+02  0.53435599261E+02  0.00000000000E+00 0. -1.
</event>
<event>
 7   1  0.1436400E+01  0.8040000E+02  0.7546772E-02  0.1297830E+00
        2   -1    0    0  503    0  0.00000000000E+00  0.00000000000E+00  0.84503985400E+03  0.84503985400E+03  0.00000000000E+00 0. -1.
       21   -1    0    0  501  502  0.00000000000E+00  0.00000000000E+00 -0.46117725725E+02  0.46117725725E+02  0.00000000000E+00 0. -1.
       24    2    1    2    0    0 -0.47895722770E+02 -0.51895542396E+02  0.18671963817E+03  0.21407560060E+03  0.77311007729E+02 0.  0.
      -11    1    3    3    0    0  0.19161616950E+02 -0.10007726825E+02  0.19529510353E+02  0.29132866920E+02  0.00000000000E+00 0.  1.
       12    1    3    3    0    0 -0.67057339721E+02 -0.41887815571E+02  0.16719012781E+03  0.18494273368E+03  0.00000000000E+00 0. -1.
        1    1    1    2  501    0  0.86914585118E+02  0.10868559793E+03  0.58770045761E+03  0.60395242543E+03  0.00000000000E+00 0. -1.
       21    1    1    2  503  502 -0.39018862348E+02 -0.56790055539E+02  0.24502032499E+02  0.73129553694E+02  0.00000000000E+00 0. -1.
</event>
<event>
 7   1  0.1436400E+01  0.8040000E+02  0.7546772E-02  0.1297830E+00
       21   -1    0    0  501  502  0.00000000000E+00  0.00000000000E+00  0.83131856986E+02  0.83131856986E+02  0.00000000000E+00 0. -1.
        2   -1    0    0  503    0  0.00000000000E+00  0.00000000000E+00 -0.12029673952E+04  0.12029673952E+04  0.00000000000E+00 0. -1.
       24    2    1    2    0    0 -0.10930528034E+02  0.44536075723E+02 -0.11477536883E+04  0.11516037840E+04  0.82157214545E+02 0.  0.
      -11    1    3    3    0    0  0.16253642981E+02 -0.15895488836E+02 -0.15710754375E+03  0.15874390627E+03  0.00000000000E+00 0.  1.
       12    1    3    3    0    0 -0.27184171015E+02  0.60431564559E+02 -0.99064614453E+03  0.99285987773E+03  0.00000000000E+00 0. -1.
        1    1    1    2  501    0 -0.24096122231E+02 -0.53855426496E+02 -0.29985917788E+02  0.66182968619E+02  0.00000000000E+00 0. -1.
       21    1    1    2  503  502  0.35026650264E+02  0.93193507729E+01  0.57904067831E+02  0.68312499581E+02  0.00000000000E+00 0. -1.
</event>
<event>
 7   1  0.1436400E+01  0.8040000E+02  0.7546772E-02  0.1297830E+00
        2   -1    0    0  503    0  0.00000000000E+00  0.00000000000E+00  0.15433561514E+04  0.15433561514E+04  0.00000000000E+00 0. -1.
       21   -1    0    0  501  502  0.00000000000E+00  0.00000000000E+00 -0.75288781421E+01  0.75288781421E+01  0.00000000000E+00 0. -1.
       24    2    1    2    0    0  0.45064357719E+02  0.19166280226E+02  0.92180665102E+03  0.92657953245E+03  0.80149768944E+02 0.  0.
      -11    1    3    3    0    0 -0.44406250466E+01  0.18856236029E+02  0.54135322005E+02  0.57497042329E+02  0.00000000000E+00 0.  1.
       12    1    3    3    0    0  0.49504982766E+02  0.31004419751E+00  0.86767132901E+03  0.86908249012E+03  0.00000000000E+00 0. -1.
        1    1    1    2  501    0 -0.28589076916E+02 -0.53862580502E+02  0.50596531970E+03  0.50962674345E+03  0.00000000000E+00 0. -1.
       21    1    1    2  503  502 -0.16475280804E+02  0.34696300276E+02  0.10805530254E+03  0.11467875364E+03  0.00000000000E+00 0. -1.
</event>
<event>
 7   1  0.1436400E+01  0.8040000E+02  0.7546772E-02  0.1297830E+00
       21   -1    0    0  502  503  0.00000000000E+00  0.00000000000E+00  0.38139399115E+03  0.38139399115E+03  0.00000000000E+00 0. -1.
        4   -1    0    0  503    0  0.00000000000E+00  0.00000000000E+00 -0.93997250732E+02  0.93997250732E+02  0.00000000000E+00 0. -1.
       24    2    1    2    0    0 -0.29516635673E+02  0.16901044789E+03  0.13051727533E+03  0.23045556698E+03  0.81481567940E+02 0.  0.
      -11    1    3    3    0    0  0.12937490062E+02  0.13462889486E+03  0.90438072162E+02  0.16270022396E+03  0.00000000000E+00 0.  1.
       12    1    3    3    0    0 -0.42454125735E+02  0.34381553027E+02  0.40079203171E+02  0.67755343017E+02  0.00000000000E+00 0. -1.
        3    1    1    2  501    0 -0.21624862630E+02 -0.97070962404E+02  0.90924159859E+02  0.13475017355E+03  0.00000000000E+00 0. -1.
       21    1    1    2  502  501  0.51141498303E+02 -0.71939485487E+02  0.65955305229E+02  0.11018550135E+03  0.00000000000E+00 0. -1.
</event>
<event>
 7   1  0.1436400E+01  0.8040000E+02  0.7546772E-02  0.1297830E+00
        3   -1    0    0  502    0  0.00000000000E+00  0.00000000000E+00  0.85908128679E+01  0.85908128679E+01  0.00000000000E+00 0.  1.
        2   -1    0    0  501    0  0.00000000000E+00  0.00000000000E+00 -0.13402508365E+04  0.13402508365E+04  0.00000000000E+00 0. -1.
       24    2    1    2    0    0 -0.23752294187E+02 -0.35727531198E+02 -0.61410431090E+03  0.62071487043E+03  0.79512374834E+02 0.  0.
      -11    1    3    3    0    0 -0.41401440640E+02  0.65488523019E+01 -0.22006781319E+03  0.22402412628E+03  0.00000000000E+00 0.  1.
       12    1    3    3    0    0  0.17649146453E+02 -0.42276383500E+02 -0.39403649770E+03  0.39669074415E+03  0.00000000000E+00 0. -1.
        1    1    1    2  502    0  0.34830803556E+02 -0.36101054757E+02 -0.33399216776E+03  0.33773841824E+03  0.00000000000E+00 0. -1.
        3    1    1    2  501    0 -0.11078509369E+02  0.71828585955E+02 -0.38356354498E+03  0.39038836070E+03  0.00000000000E+00 0.  1.
</event>
<event>
 7   1  0.1436400E+01  0.8040000E+02  0.7546772E-02  0.1297830E+00
        2   -1    0    0  503    0  0.00000000000E+00  0.00000000000E+00  0.42759569935E+03  0.42759569935E+03  0.00000000000E+00 0. -1.
       21   -1    0    0  502  503  0.00000000000E+00  0.00000000000E+00 -0.57625344375E+02  0.57625344375E+02  0.00000000000E+00 0. -1.
       24    2    1    2    0    0 -0.28256746430E+02  0.12474639475E+03  0.29336327153E+03  0.32946285451E+03  0.78253796711E+02 0.  0.
      -11    1    3    3    0    0 -0.35679566583E+02  0.16155618402E+02  0.10275819845E+03  0.10996946315E+03  0.00000000000E+00 0.  1.
       12    1    3    3    0    0  0.74228201532E+01  0.10859077635E+03  0.19060507307E+03  0.21949339136E+03  0.00000000000E+00 0. -1.
        1    1    1    2  501    0  0.40360860667E+02 -0.85986404700E+02  0.54983223371E+02  0.10975343147E+03  0.00000000000E+00 0. -1.
       21    1    1    2  502  501 -0.12104114237E+02 -0.38759990054E+02  0.21623860081E+02  0.46004757746E+02  0.00000000000E+00 0. -1.
</event>
<event>
 7   1  0.1436400E+01  0.8040000E+02  0.7546772E-02  0.1297830E+00
       21   -1    0    0  501  502  0.00000000000E+00  0.00000000000E+00  0.80398181265E+02  0.80398181265E+02  0.00000000000E+00 0. -1.
        2   -1    0    0  503    0  0.00000000000E+00  0.00000000000E+00 -0.13751432590E+03  0.13751432590E+03  0.00000000000E+00 0. -1.
       24    2    1    2    0    0  0.39893207864E+02  0.27932297200E+02  0.21977590493E+01  0.93300804881E+02  0.79552050797E+02 0.  0.
      -11    1    3    3    0    0 -0.20626138673E+02 -0.16266332854E+01  0.13918880103E+02  0.24936293945E+02  0.00000000000E+00 0.  1.
       12    1    3    3    0    0  0.60519346537E+02  0.29558930486E+02 -0.11721121054E+02  0.68364510936E+02  0.00000000000E+00 0. -1.
        1    1    1    2  501    0 -0.44712514424E+02  0.14673483061E+02 -0.66162100704E+02  0.81190785320E+02  0.00000000000E+00 0. -1.
       21    1    1    2  503  502  0.48193065597E+01 -0.42605780261E+02  0.68481970210E+01  0.43420916962E+02  0.00000000000E+00 0. -1.
</event>
<event>
 6   1  0.1436400E+01  0.8040000E+02  0.7546772E-02  0.1297830E+00
       21   -1    0    0  501  502  0.00000000000E+00  0.00000000000E+00  0.50065905555E+02  0.50065905555E+02  0.00000000000E+00 0.  1.
        2   -1    0    0  503    0  0.00000000000E+00  0.00000000000E+00 -0.93736476292E+03  0.93736476292E+03  0.00000000000E+00 0. -1.
      -11    1    1    2    0    0 -0.40364901891E+02  0.17684115943E+03 -0.42359691870E+03  0.46079981609E+03  0.00000000000E+00 0.  1.
       12    1    1    2    0    0  0.45507241277E+02 -0.11097623449E+03 -0.18396788801E+03  0.21961515760E+03  0.00000000000E+00 0. -1.
        1    1    1    2  501    0 -0.34228426608E+02 -0.80611157226E+02 -0.24078643489E+03  0.25621836602E+03  0.00000000000E+00 0. -1.
       21    1    1    2  503  502  0.29086087221E+02  0.14746232279E+02 -0.38947615769E+02  0.50797328772E+02  0.00000000000E+00 0.  1.
</event>
<event>
 7   1  0.1436400E+01  0.8040000E+02  0.7546772E-02  0.1297830E+00
        2   -1    0    0  503    0  0.00000000000E+00  0.00000000000E+00  0.89743767317E+02  0.89743767317E+02  0.00000000000E+00 0. -1.
       21   -1    0    0  501  502  0.00000000000E+00  0.00000000000E+00 -0.25295661320E+03  0.25295661320E+03  0.00000000000E+00 0. -1.
       24    2    1    2    0    0  0.21842354001E+02 -0.67124034672E+02 -0.20404756639E+02  0.10992302505E+03  0.81755690222E+02 0.  0.
      -11    1    3    3    0    0 -0.20108403292E+02  0.82054438665E+01 -0.25097684400E+01  0.21862665199E+02  0.00000000000E+00 0.  1.
       12    1    3    3    0    0  0.41950757293E+02 -0.75329478539E+02 -0.17894988199E+02  0.88060359850E+02  0.00000000000E+00 0. -1.
        1    1    1    2  501    0 -0.45857178084E+02  0.88437570038E+02 -0.16570213611E+03  0.19334239703E+03  0.00000000000E+00 0. -1.
       21    1    1    2  503  502  0.24014824083E+02 -0.21313535366E+02  0.22894046866E+02  0.39434958443E+02  0.00000000000E+00 0. -1.
</event>
<event>
 7   1  0.1436400E+01  0.8040000E+02  0.7546772E-02  0.1297830E+00
        2   -1    0    0  503    0  0.00000000000E+00  0.00000000000E+00  0.87890115400E+03  0.87890115400E+03  0.00000000000E+00 0. -1.
       21   -1    0    0  501  502  0.00000000000E+00  0.00000000000E+00 -0.15735957077E+03  0.15735957077E+03  0.00000000000E+00 0. -1.
       24    2    1    2    0    0  0.10743543638E+03 -0.90546753300E+02  0.38088208449E+03  0.41426560901E+03  0.82484816811E+02 0.  0.
      -11    1    3    3    0    0  0.26743099903E+02 -0.10667965914E+01  0.18921810571E+02  0.32777528318E+02  0.00000000000E+00 0.  1.
       12    1    3    3    0    0  0.80692336477E+02 -0.89479956708E+02  0.36196027392E+03  0.38148808069E+03  0.00000000000E+00 0. -1.
        1    1    1    2  501    0 -0.14569980173E+03  0.71148616158E+02  0.46394289975E+03  0.49146065156E+03  0.00000000000E+00 0. -1.
       21    1    1    2  503  502  0.38264365350E+02  0.19398137141E+02 -0.12328340101E+03  0.13053446420E+03  0.00000000000E+00 0. -1.
</event>
<event>
 7   1  0.1436400E+01  0.8040000E+02  0.7546772E-02  0.1297830E+00
       21   -1    0    0  501  502  0.00000000000E+00  0.00000000000E+00  0.79155607858E+02  0.79155607858E+02  0.00000000000E+00 0.  1.
        2   -1    0    0  503    0  0.00000000000E+00  0.00000000000E+00 -0.92935394025E+03  0.92935394025E+03  0.00000000000E+00 0. -1.
       24    2    1    2    0    0 -0.29135306297E+02 -0.99615087880E+01 -0.47462472908E+03  0.48124793076E+03  0.73367838103E+02 0.  0.
      -11    1    3    3    0    0 -0.52053476686E+02  0.28520435596E+01 -0.27432054930E+03  0.27923012437E+03  0.00000000000E+00 0.  1.
       12    1    3    3    0    0  0.22918170389E+02 -0.12813552348E+02 -0.20030417978E+03  0.20201780638E+03  0.00000000000E+00 0. -1.
        1    1    1    2  501    0  0.64058421437E+02 -0.50586251302E+02 -0.43062214741E+03  0.43828972612E+03  0.00000000000E+00 0. -1.
       21    1    1    2  503  502 -0.34923115140E+02  0.60547760090E+02  0.55048544100E+02  0.88971891239E+02  0.00000000000E+00 0.  1.
</event>
<event>
 7   1  0.1436400E+01  0.8040000E+02  0.7546772E-02  0.1297830E+00
        2   -1    0    0  503    0  0.00000000000E+00  0.00000000000E+00  0.52314243047E+03  0.52314243047E+03  0.00000000000E+00 0. -1.
       21   -1    0    0  501  502  0.00000000000E+00  0.00000000000E+00 -0.15674419554E+02  0.15674419554E+02  0.00000000000E+00 0.  1.
       24    2    1    2    0    0 -0.33794810391E+02  0.56655697003E+02  0.23615572324E+03  0.25608683578E+03  0.73884941828E+02 0.  0.
      -11    1    3    3    0    0 -0.82248507767E+01  0.39626488735E+02  0.37839632748E+02  0.55405275799E+02  0.00000000000E+00 0.  1.
       12    1    3    3    0    0 -0.25569959615E+02  0.17029208268E+02  0.19831609049E+03  0.20068155998E+03  0.00000000000E+00 0. -1.
        1    1    1    2  501    0  0.22391151488E+02 -0.23737308896E+02  0.57636129096E+02  0.66232521285E+02  0.00000000000E+00 0. -1.
       21    1    1    2  503  502  0.11403658904E+02 -0.32918388107E+02  0.21367615858E+03  0.21649749296E+03  0.00000000000E+00 0. -1.
</event>
<event>
 7   1  0.1436400E+01  0.8040000E+02  0.7546772E-02  0.1297830E+00
        2   -1    0    0  503    0  0.00000000000E+00  0.00000000000E+00  0.22320124370E+03  0.22320124370E+03  0.00000000000E+00 0. -1.
       21   -1    0    0  501  502  0.00000000000E+00  0.00000000000E+00 -0.48133883307E+02  0.48133883307E+02  0.00000000000E+00 0.  1.
       24    2    1    2    0    0 -0.55552456368E+02  0.53834044023E+02  0.51905073718E+02  0.12237607615E+03  0.79357341393E+02 0.  0.
      -11    1    3    3    0    0 -0.21116043102E+02  0.62389117834E+02  0.86532580636E+01  0.66431680511E+02  0.00000000000E+00 0.  1.
       12    1    3    3    0    0 -0.34436413266E+02 -0.85550738110E+01  0.43251815654E+02  0.55944395644E+02  0.00000000000E+00 0. -1.
        1    1    1    2  501    0  0.23783427153E+02 -0.41559213519E+02  0.86842860098E+02  0.99169057601E+02  0.00000000000E+00 0. -1.
       21    1    1    2  503  502  0.31769029215E+02 -0.12274830504E+02  0.36319426581E+02  0.49789993255E+02  0.00000000000E+00 0.  1.
</event>
<event>
 7   1  0.1436400E+01  0.8040000E+02  0.7546772E-02  0.1297830E+00
        2   -1    0    0  503    0  0.00000000000E+00  0.00000000000E+00  0.13947397649E+03  0.13947397649E+03  0.00000000000E+00 0. -1.
       21   -1    0    0  501  502  0.00000000000E+00  0.00000000000E+00 -0.12038770418E+03  0.12038770418E+03  0.00000000000E+00 0. -1.
       24    2    1    2    0    0  0.27253175888E+02  0.63459680818E+01  0.66726395079E+02  0.11096207911E+03  0.84125883610E+02 0.  0.
      -11    1    3    3    0    0 -0.17681238180E+02 -0.25726301121E+02  0.12646215044E+02  0.33680788410E+02  0.00000000000E+00 0.  1.
       12    1    3    3    0    0  0.44934414069E+02  0.32072269203E+02  0.54080180035E+02  0.77281290699E+02  0.00000000000E+00 0. -1.
        1    1    1    2  501    0  0.31167347798E+02 -0.41223869605E+02  0.17640405939E+02  0.54607645212E+02  0.00000000000E+00 0. -1.
       21    1    1    2  503  502 -0.58420523687E+02  0.34877901523E+02 -0.65280528716E+02  0.94291956347E+02  0.00000000000E+00 0. -1.
</event>
<event>
 7   1  0.1436400E+01  0.8040000E+02  0.7546772E-02  0.1297830E+00
        2   -1    0    0  503    0  0.00000000000E+00  0.00000000000E+00  0.62478322430E+03  0.62478322430E+03  0.00000000000E+00 0. -1.
       21   -1    0    0  501  502  0.00000000000E+00  0.00000000000E+00 -0.35149443533E+03  0.35149443533E+03  0.00000000000E+00 0. -1.
       24    2    1    2    0    0 -0.22430944024E+02 -0.11500314276E+02  0.41018032064E+03  0.41875732607E+03  0.80463645326E+02 0.  0.
      -11    1    3    3    0    0  0.18256469618E+02  0.23990506034E+02  0.13405601215E+03  0.13740399359E+03  0.00000000000E+00 0.  1.
       12    1    3    3    0    0 -0.40687413642E+02 -0.35490820310E+02  0.27612430849E+03  0.28135333248E+03  0.00000000000E+00 0. -1.
        1    1    1    2  501    0  0.71867482570E+02  0.15996712121E+03  0.14997316097E+03  0.23075173657E+03  0.00000000000E+00 0. -1.
       21    1    1    2  503  502 -0.49436538546E+02 -0.14846680694E+03 -0.28686469263E+03  0.32676859700E+03  0.00000000000E+00 0. -1.
</event>
<event>
 7   1  0.1436400E+01  0.8040000E+02  0.7546772E-02  0.1297830E+00
       21   -1    0    0  501  502  0.00000000000E+00  0.00000000000E+00  0.24681311299E+03  0.24681311299E+03  0.00000000000E+00 0. -1.
       -1   -1    0    0    0  501  0.00000000000E+00  0.00000000000E+00 -0.13044500713E+03  0.13044500713E+03  0.00000000000E+00 0.  1.
       24    2    1    2    0    0 -0.15883765312E+03 -0.12877771690E+01  0.40335191061E+02  0.18284162577E+03  0.81074496969E+02 0.  0.
      -11    1    3    3    0    0 -0.45567454381E+02 -0.34763004333E+02 -0.20588388233E+01  0.57350659860E+02  0.00000000000E+00 0.  1.
       12    1    3    3    0    0 -0.11327019874E+03  0.33475227164E+02  0.42394029884E+02  0.12549096591E+03  0.00000000000E+00 0. -1.
       -2    1    1    2    0  503  0.92328281170E+02 -0.40024267557E+02  0.41936623394E+02  0.10901896110E+03  0.00000000000E+00 0.  1.
       21    1    1    2  503  502  0.66509371948E+02  0.41312044726E+02  0.34096291408E+02  0.85397533244E+02  0.00000000000E+00 0. -1.
</event>
<event>
 7   1  0.1436400E+01  0.8040000E+02  0.7546772E-02  0.1297830E+00
        2   -1    0    0  503    0  0.00000000000E+00  0.00000000000E+00  0.13287890945E+04  0.13287890945E+04  0.00000000000E+00 0. -1.
       21   -1    0    0  501  502  0.00000000000E+00  0.00000000000E+00 -0.11943863173E+03  0.11943863173E+03  0.00000000000E+00 0. -1.
       24    2    1    2    0    0 -0.63262734266E+01 -0.11975783384E+02  0.13085823082E+04  0.13108869798E+04  0.76508661386E+02 0.  0.
      -11    1    3    3    0    0 -0.23055829244E+02  0.25187723836E+02  0.42701859656E+03  0.42838169254E+03  0.00000000000E+00 0.  1.
       12    1    3    3    0    0  0.16729555817E+02 -0.37163507219E+02  0.88156371168E+03  0.88250528726E+03  0.00000000000E+00 0. -1.
        1    1    1    2  501    0 -0.24169171475E+02  0.21500053804E+02  0.77231030288E+00  0.32357342700E+02  0.00000000000E+00 0. -1.
       21    1    1    2  503  502  0.30495444901E+02 -0.95242704206E+01 -0.10000415577E+03  0.10498340372E+03  0.00000000000E+00 0. -1.
</event>
<event>
 7   1  0.1436400E+01  0.8040000E+02  0.7546772E-02  0.1297830E+00
       21   -1    0    0  501  502  0.00000000000E+00  0.00000000000E+00  0.19450789956E+03  0.19450789956E+03  0.00000000000E+00 0. -1.
        2   -1    0    0  503    0  0.00000000000E+00  0.00000000000E+00 -0.34684172815E+03  0.34684172815E+03  0.00000000000E+00 0. -1.
       24    2    1    2    0    0  0.92407701457E+02 -0.71532785126E+02 -0.28749472722E+03  0.32063762779E+03  0.80617290557E+02 0.  0.
      -11    1    3    3    0    0  0.15412960927E+02 -0.13044745093E+02 -0.33193558759E+01  0.20463207533E+02  0.00000000000E+00 0.  1.
       12    1    3    3    0    0  0.76994740530E+02 -0.58488040034E+02 -0.28417537135E+03  0.30017442026E+03  0.00000000000E+00 0. -1.
        1    1    1    2  501    0 -0.48693352912E+02  0.88228208161E+02  0.29262894741E+02  0.10493605835E+03  0.00000000000E+00 0. -1.
       21    1    1    2  503  502 -0.43714348545E+02 -0.16695423035E+02  0.10589800389E+03  0.11577594157E+03  0.00000000000E+00 0. -1.
</event>
<event>
 7   1  0.1436400E+01  0.8040000E+02  0.7546772E-02  0.1297830E+00
        2   -1    0    0  503    0  0.00000000000E+00  0.00000000000E+00  0.37146315781E+03  0.37146315781E+03  0.00000000000E+00 0. -1.
       21   -1    0    0  501  502  0.00000000000E+00  0.00000000000E+00 -0.40929581719E+02  0.40929581719E+02  0.00000000000E+00 0. -1.
       24    2    1    2    0    0  0.34099777545E+02  0.12506006602E+02  0.19512885503E+03  0.21494869111E+03  0.82513482016E+02 0.  0.
      -11    1    3    3    0    0 -0.15038690240E+02  0.82949138716E+01  0.41014650213E+01  0.17657571056E+02  0.00000000000E+00 0.  1.
       12    1    3    3    0    0  0.49138467785E+02  0.42110927302E+01  0.19102739001E+03  0.19729112005E+03  0.00000000000E+00 0. -1.
        1    1    1    2  501    0 -0.72176168315E+02 -0.12185207479E+02  0.19943146414E+02  0.75865721132E+02  0.00000000000E+00 0. -1.
       21    1    1    2  503  502  0.38076390770E+02 -0.32079912247E+00  0.11546157465E+03  0.12157832729E+03  0.00000000000E+00 0. -1.
</event>
<event>
 7   1  0.1436400E+01  0.8040000E+02  0.7546772E-02  0.1297830E+00
        2   -1    0    0  503    0  0.00000000000E+00  0.00000000000E+00  0.82204837143E+03  0.82204837143E+03  0.00000000000E+00 0. -1.
       21   -1    0    0  501  502  0.00000000000E+00  0.00000000000E+00 -0.30681204687E+02  0.30681204687E+02  0.00000000000E+00 0. -1.
       24    2    1    2    0    0 -0.10041919261E+03  0.21149020080E+02  0.33047185517E+03  0.35594816237E+03  0.83403548724E+02 0.  0.
      -11    1    3    3    0    0 -0.16579570301E+02 -0.16253067449E+02  0.16577547465E+03  0.16739340593E+03  0.00000000000E+00 0.  1.
       12    1    3    3    0    0 -0.83839622304E+02  0.37402087529E+02  0.16469638052E+03  0.18855475644E+03  0.00000000000E+00 0. -1.
        1    1    1    2  501    0  0.75050875474E+02 -0.45554023414E+02  0.45203508590E+03  0.46048183660E+03  0.00000000000E+00 0. -1.
       21    1    1    2  503  502  0.25368317131E+02  0.24405003334E+02  0.88602256724E+01  0.36299577143E+02  0.00000000000E+00 0. -1.
</event>
<event>
 7   1  0.1436400E+01  0.8040000E+02  0.7546772E-02  0.1297830E+00
        2   -1    0    0  503    0  0.00000000000E+00  0.00000000000E+00  0.20940503176E+03  0.20940503176E+03  0.00000000000E+00 0. -1.
       21   -1    0    0  502  503  0.00000000000E+00  0.00000000000E+00 -0.25937032456E+03  0.25937032456E+03  0.00000000000E+00 0. -1.
       24    2    1    2    0    0  0.18433848480E+03  0.12975693110E+03 -0.26830517609E+02  0.23787292142E+03  0.71035990320E+02 0.  0.
      -11    1    3    3    0    0  0.94455868149E+02  0.37731179253E+02  0.14538733645E+02  0.10274691086E+03  0.00000000000E+00 0.  1.
       12    1    3    3    0    0  0.89882616656E+02  0.92025751845E+02 -0.41369251255E+02  0.13512601056E+03  0.00000000000E+00 0. -1.
        1    1    1    2  501    0 -0.14000731157E+03 -0.11795382400E+03 -0.26141555793E+02  0.18492845327E+03  0.00000000000E+00 0. -1.
       21    1    1    2  502  501 -0.44331173234E+02 -0.11803107100E+02  0.30067805993E+01  0.45973981632E+02  0.00000000000E+00 0.  1.
</event>
<event>
 7   1  0.1436400E+01  0.8040000E+02  0.7546772E-02  0.1297830E+00
        2   -1    0    0  503    0  0.00000000000E+00  0.00000000000E+00  0.12967086389E+04  0.12967086389E+04  0.00000000000E+00 0. -1.
       21   -1    0    0  501  502  0.00000000000E+00  0.00000000000E+00 -0.45190887095E+02  0.45190887095E+02  0.00000000000E+00 0.  1.
       24    2    1    2    0    0 -0.17515471452E+02  0.35523730094E+02  0.11579665572E+04  0.11616704872E+04  0.83803616238E+02 0.  0.
      -11    1    3    3    0    0 -0.19578059852E+02  0.23625840382E+01  0.59129074463E+02  0.62330808416E+02  0.00000000000E+00 0.  1.
       12    1    3    3    0    0  0.20625883999E+01  0.33161146056E+02  0.10988374828E+04  0.10993396788E+04  0.00000000000E+00 0. -1.
        1    1    1    2  501    0  0.70929641581E+02 -0.46247050163E+02  0.92963632337E+02  0.12574593688E+03  0.00000000000E+00 0. -1.
       21    1    1    2  503  502 -0.53414170130E+02  0.10723320069E+02  0.58756225384E+00  0.54483101906E+02  0.00000000000E+00 0.  1.
</event>
<event>
 7   1  0.1436400E+01  0.8040000E+02  0.7546772E-02  0.1297830E+00
       -1   -1    0    0    0  502  0.00000000000E+00  0.00000000000E+00  0.25030442808E+02  0.25030442808E+02  0.00000000000E+00 0.  1.
        2   -1    0    0  501    0  0.00000000000E+00  0.00000000000E+00 -0.57641410601E+03  0.57641410601E+03  0.00000000000E+00 0. -1.
       24    2    1    2    0    0 -0.16989911090E+02 -0.56506214471E+00 -0.19186334663E+03  0.20860739443E+03  0.80103213786E+02 0.  0.
      -11    1    3    3    0    0 -0.41826922656E+02 -0.13046654825E+01 -0.17134988900E+03  0.17638587833E+03  0.00000000000E+00 0.  1.
       12    1    3    3    0    0  0.24837011565E+02  0.73960333780E+00 -0.20513457623E+02  0.32221516107E+02  0.00000000000E+00 0. -1.
        3    1    1    2  501    0 -0.29782649934E+02 -0.64736321141E+02 -0.11329713063E+03  0.13384333125E+03  0.00000000000E+00 0.  1.
       -3    1    1    2    0  502  0.46772561024E+02  0.65301383286E+02 -0.24622318594E+03  0.25899382313E+03  0.00000000000E+00 0. -1.
</event>
<event>
 7   1  0.1436400E+01  0.8040000E+02  0.7546772E-02  0.1297830E+00
       21   -1    0    0  501  502  0.00000000000E+00  0.00000000000E+00  0.59264923075E+02  0.59264923075E+02  0.00000000000E+00 0.  1.
        2   -1    0    0  503    0  0.00000000000E+00  0.00000000000E+00 -0.62407229243E+03  0.62407229243E+03  0.00000000000E+00 0. -1.
       24    2    1    2    0    0 -0.54951527122E+02  0.54102719969E+01 -0.27135084188E+03  0.28810433745E+03  0.79522880289E+02 0.  0.
      -11    1    3    3    0    0  0.10554364328E+02 -0.87621663345E+01 -0.13973446399E+03  0.14040616294E+03  0.00000000000E+00 0.  1.
       12    1    3    3    0    0 -0.65505891450E+02  0.14172438331E+02 -0.13161637789E+03  0.14769817450E+03  0.00000000000E+00 0. -1.
        1    1    1    2  501    0  0.36914850501E+02  0.79645354772E+02 -0.29549841222E+03  0.30826190220E+03  0.00000000000E+00 0. -1.
       21    1    1    2  503  502  0.18036676621E+02 -0.85055626769E+02  0.20418847440E+01  0.86970975859E+02  0.00000000000E+00 0.  1.
</event>
<event>
 7   1  0.1436400E+01  0.8040000E+02  0.7546772E-02  0.1297830E+00
        1   -1    0    0  502    0  0.00000000000E+00  0.00000000000E+00  0.12883667391E+04  0.12883667391E+04  0.00000000000E+00 0.  1.
        2   -1    0    0  501    0  0.00000000000E+00  0.00000000000E+00 -0.63615853675E+03  0.63615853675E+03  0.00000000000E+00 0. -1.
       24    2    1    2    0    0  0.11825812886E+03 -0.35996098010E+02 -0.34442295016E+03  0.37371108555E+03  0.75842618306E+02 0.  0.
      -11    1    3    3    0    0  0.10148586607E+02 -0.10526019798E+02 -0.33381904101E+01  0.14997813778E+02  0.00000000000E+00 0.  1.
       12    1    3    3    0    0  0.10810954225E+03 -0.25470078211E+02 -0.34108475975E+03  0.35871327177E+03  0.00000000000E+00 0. -1.
        1    1    1    2  501    0 -0.24784608984E+02  0.13416304882E+03  0.12532182713E+04  0.12606228762E+04  0.00000000000E+00 0.  1.
        1    1    1    2  502    0 -0.93473519875E+02 -0.98166950809E+02 -0.25658711887E+03  0.29019131400E+03  0.00000000000E+00 0. -1.
</event>
<event>
 7   1  0.1436400E+01  0.8040000E+02  0.7546772E-02  0.1297830E+00
        2   -1    0    0  501    0  0.00000000000E+00  0.00000000000E+00  0.32920011434E+03  0.32920011434E+03  0.00000000000E+00 0. -1.
        3   -1    0    0  502    0  0.00000000000E+00  0.00000000000E+00 -0.55298497783E+02  0.55298497783E+02  0.00000000000E+00 0. -1.
       24    2    1    2    0    0 -0.20895056543E+02  0.11706278623E+03  0.17779483149E+03  0.22843899037E+03  0.80206426846E+02 0.  0.
      -11    1    3    3    0    0 -0.50141581580E+02  0.52806985296E+02  0.88592771409E+02  0.11467970634E+03  0.00000000000E+00 0.  1.
       12    1    3    3    0    0  0.29246525037E+02  0.64255800936E+02  0.89202060082E+02  0.11375928403E+03  0.00000000000E+00 0. -1.
        1    1    1    2  502    0 -0.56967674158E+01 -0.56625855377E+02  0.43252512669E+02  0.71482309059E+02  0.00000000000E+00 0. -1.
        3    1    1    2  501    0  0.26591823959E+02 -0.60436930855E+02  0.52854272402E+02  0.84577312701E+02  0.00000000000E+00 0. -1.
</event>
<event>
 7   1  0.1436400E+01  0.8040000E+02  0.7546772E-02  0.1297830E+00
        2   -1    0    0  503    0  0.00000000000E+00  0.00000000000E+00  0.83359015062E+03  0.83359015062E+03  0.00000000000E+00 0. -1.
       21   -1    0    0  501  502  0.00000000000E+00  0.00000000000E+00 -0.32219495184E+02  0.32219495184E+02  0.00000000000E+00 0. -1.
       24    2    1    2    0    0  0.80693436571E+01  0.99957989682E+02  0.52744357037E+03  0.54264350468E+03  0.78794284333E+02 0.  0.
      -11    1    3    3    0    0 -0.14818165731E+02  0.30511902101E+02  0.55319348681E+02  0.64890558203E+02  0.00000000000E+00 0.  1.
       12    1    3    3    0    0  0.22887509388E+02  0.69446087582E+02  0.47212422169E+03  0.47775294648E+03  0.00000000000E+00 0. -1.
        1    1    1    2  501    0 -0.55320792807E+02 -0.86661862404E+02  0.10380191981E+03  0.14610101666E+03  0.00000000000E+00 0. -1.
       21    1    1    2  503  502  0.47251449150E+02 -0.13296127279E+02  0.17012516525E+03  0.17706512446E+03  0.00000000000E+00 0.  1.
</event>
<event>
 7   1  0.1436400E+01  0.8040000E+02  0.7546772E-02  0.1297830E+00
        2   -1    0    0  503    0  0.00000000000E+00  0.00000000000E+00  0.22980450952E+03  0.22980450952E+03  0.00000000000E+00 0. -1.
       21   -1    0    0  501  502  0.00000000000E+00  0.00000000000E+00 -0.98159573394E+02  0.98159573394E+02  0.00000000000E+00 0. -1.
       24    2    1    2    0    0 -0.32264345719E+02  0.12585898940E+02  0.13902329512E+03  0.16438704208E+03  0.80599194542E+02 0.  0.
      -11    1    3    3    0    0  0.16587374181E+02  0.17098625800E+02  0.90854228714E+01  0.25496056464E+02  0.00000000000E+00 0.  1.
       12    1    3    3    0    0 -0.48851719900E+02 -0.45127268596E+01  0.12993787225E+03  0.13889098561E+03  0.00000000000E+00 0. -1.
        1    1    1    2  501    0  0.61793301278E+01 -0.30501427179E+02 -0.79198917757E+02  0.85094005398E+02  0.00000000000E+00 0. -1.
       21    1    1    2  503  502  0.26085015591E+02  0.17915528240E+02  0.71820558767E+02  0.78483035442E+02  0.00000000000E+00 0. -1.
</event>
<event>
 7   1  0.1436400E+01  0.8040000E+02  0.7546772E-02  0.1297830E+00
        2   -1    0    0  501    0  0.00000000000E+00  0.00000000000E+00  0.61805550800E+03  0.61805550800E+03  0.00000000000E+00 0.  1.
        2   -1    0    0  502    0  0.00000000000E+00  0.00000000000E+00 -0.98353656489E+03  0.98353656489E+03  0.00000000000E+00 0. -1.
       24    2    1    2    0    0 -0.30041842573E+02 -0.26459797761E+02 -0.94108868032E+03  0.94542341722E+03  0.81085759458E+02 0.  0.
      -11    1    3    3    0    0 -0.22365744481E+02 -0.48802410930E+02 -0.37295834437E+03  0.37680210784E+03  0.00000000000E+00 0.  1.
       12    1    3    3    0    0 -0.76760980919E+01  0.22342613169E+02 -0.56813033595E+03  0.56862130937E+03  0.00000000000E+00 0. -1.
        2    1    1    2  502    0  0.36541088340E+01  0.41804219626E+02  0.60927796932E+03  0.61072136789E+03  0.00000000000E+00 0.  1.
        1    1    1    2  501    0  0.26387733739E+02 -0.15344421865E+02 -0.33670345889E+02  0.45447287780E+02  0.00000000000E+00 0. -1.
</event>
<event>
 7   1  0.1436400E+01  0.8040000E+02  0.7546772E-02  0.1297830E+00
        2   -1    0    0  501    0  0.00000000000E+00  0.00000000000E+00  0.48750374782E+02  0.48750374782E+02  0.00000000000E+00 0.  1.
        2   -1    0    0  502    0  0.00000000000E+00  0.00000000000E+00 -0.41027202794E+03  0.41027202794E+03  0.00000000000E+00 0. -1.
       24    2    1    2    0    0 -0.91377463143E+01 -0.70310417872E+01 -0.28777418947E+03  0.29954811599E+03  0.82353844550E+02 0.  0.
      -11    1    3    3    0    0  0.16604456260E+02 -0.34318554880E+02 -0.20708203127E+03  0.21056219711E+03  0.00000000000E+00 0.  1.
       12    1    3    3    0    0 -0.25742202574E+02  0.27287513093E+02 -0.80692158202E+02  0.88985918883E+02  0.00000000000E+00 0. -1.
        2    1    1    2  502    0 -0.62329577435E+02  0.27149153310E+01 -0.91754023363E+01  0.63059773203E+02  0.00000000000E+00 0.  1.
        1    1    1    2  501    0  0.71467323749E+02  0.43161264562E+01 -0.64572061352E+02  0.96414513527E+02  0.00000000000E+00 0. -1.
</event>
<event>
 7   1  0.1436400E+01  0.8040000E+02  0.7546772E-02  0.1297830E+00
        2   -1    0    0  503    0  0.00000000000E+00  0.00000000000E+00  0.41661449546E+03  0.41661449546E+03  0.00000000000E+00 0. -1.
       21   -1    0    0  501  502  0.00000000000E+00  0.00000000000E+00 -0.10679440436E+03  0.10679440436E+03  0.00000000000E+00 0. -1.
       24    2    1    2    0    0 -0.24685973019E+02 -0.45873465768E+02  0.90498307649E+02  0.13153990827E+03  0.79993947621E+02 0.  0.
      -11    1    3    3    0    0  0.19767753604E+01 -0.34238425212E+02 -0.22178305036E+01  0.34367079799E+02  0.00000000000E+00 0.  1.
       12    1    3    3    0    0 -0.26662748379E+02 -0.11635040557E+02  0.92716138153E+02  0.97172828475E+02  0.00000000000E+00 0. -1.
        1    1    1    2  501    0 -0.12594309365E+03 -0.47045379447E+02  0.15094402536E+03  0.20213616538E+03  0.00000000000E+00 0. -1.
       21    1    1    2  503  502  0.15062906666E+03  0.92918845216E+02  0.68377758097E+02  0.18973282616E+03  0.00000000000E+00 0. -1.
</event>
<event>
 7   1  0.1436400E+01  0.8040000E+02  0.7546772E-02  0.1297830E+00
       21   -1    0    0  501  502  0.00000000000E+00  0.00000000000E+00  0.15207413917E+03  0.15207413917E+03  0.00000000000E+00 0. -1.
        2   -1    0    0  503    0  0.00000000000E+00  0.00000000000E+00 -0.16271689767E+04  0.16271689767E+04  0.00000000000E+00 0. -1.
       24    2    1    2    0    0 -0.29965274189E+02 -0.19934358382E+02 -0.41711157584E+03  0.42684028365E+03  0.83158070838E+02 0.  0.
      -11    1    3    3    0    0 -0.58403409170E+02 -0.15401878431E+02 -0.31536817425E+03  0.32110008003E+03  0.00000000000E+00 0.  1.
       12    1    3    3    0    0  0.28438134981E+02 -0.45324799512E+01 -0.10174340158E+03  0.10574020362E+03  0.00000000000E+00 0. -1.
        1    1    1    2  501    0  0.67933982904E+02  0.72750002478E+02 -0.11958374722E+04  0.11999728533E+04  0.00000000000E+00 0. -1.
       21    1    1    2  503  502 -0.37968708716E+02 -0.52815644096E+02  0.13785421050E+03  0.15242997886E+03  0.00000000000E+00 0. -1.
</event>
<event>
 7   1  0.1436400E+01  0.8040000E+02  0.7546772E-02  0.1297830E+00
       -1   -1    0    0    0  501  0.00000000000E+00  0.00000000000E+00  0.50813670234E+02  0.50813670234E+02  0.00000000000E+00 0.  1.
       21   -1    0    0  502  503  0.00000000000E+00  0.00000000000E+00 -0.32960301550E+03  0.32960301550E+03  0.00000000000E+00 0. -1.
       24    2    1    2    0    0  0.35589212684E+02 -0.94468390453E+01 -0.78919696108E+02  0.11723070537E+03  0.78478564080E+02 0.  0.
      -11    1    3    3    0    0 -0.18363800540E+02  0.78776613988E+01  0.11290212639E+00  0.19982478982E+02  0.00000000000E+00 0.  1.
       12    1    3    3    0    0  0.53953013224E+02 -0.17324500444E+02 -0.79032598234E+02  0.97248226386E+02  0.00000000000E+00 0. -1.
       -2    1    1    2    0  503  0.55373636221E+02  0.60282829247E+01 -0.14863836802E+03  0.15873230367E+03  0.00000000000E+00 0.  1.
       21    1    1    2  502  501 -0.90962848905E+02  0.34185561207E+01 -0.51231281144E+02  0.10445367669E+03  0.00000000000E+00 0. -1.
</event>
<event>
 7   1  0.1436400E+01  0.8040000E+02  0.7546772E-02  0.1297830E+00
       21   -1    0    0  501  502  0.00000000000E+00  0.00000000000E+00  0.28831528521E+02  0.28831528521E+02  0.00000000000E+00 0.  1.
        2   -1    0    0  503    0  0.00000000000E+00  0.00000000000E+00 -0.13407330239E+04  0.13407330239E+04  0.00000000000E+00 0. -1.
       24    2    1    2    0    0  0.41828814994E+02  0.59893809852E+02 -0.11332507391E+04  0.11387192483E+04  0.84186522108E+02 0.  0.
      -11    1    3    3    0    0  0.14086382853E+02 -0.19395292726E+02 -0.39013670360E+03  0.39087242300E+03  0.00000000000E+00 0.  1.
       12    1    3    3    0    0  0.27742432141E+02  0.79289102578E+02 -0.74311403553E+03  0.74784682531E+03  0.00000000000E+00 0. -1.
        1    1    1    2  501    0 -0.14195044467E+02  0.38341428373E+02 -0.74818022431E+02  0.85260195270E+02  0.00000000000E+00 0. -1.
       21    1    1    2  503  502 -0.27633770527E+02 -0.98235238225E+02 -0.10383273379E+03  0.14558510882E+03  0.00000000000E+00 0.  1.
</event>
<event>
 7   1  0.1436400E+01  0.8040000E+02  0.7546772E-02  0.1297830E+00
        2   -1    0    0  503    0  0.00000000000E+00  0.00000000000E+00  0.65483685518E+03  0.65483685518E+03  0.00000000000E+00 0. -1.
       21   -1    0    0  501  502  0.00000000000E+00  0.00000000000E+00 -0.65458111241E+03  0.65458111241E+03  0.00000000000E+00 0. -1.
       24    2    1    2    0    0 -0.16083663919E+02  0.35929204793E+02  0.32610639521E+03  0.33808104526E+03  0.80023872432E+02 0.  0.
      -11    1    3    3    0    0 -0.62119096031E+00 -0.22072269583E+02  0.39469971716E+02  0.45226647345E+02  0.00000000000E+00 0.  1.
       12    1    3    3    0    0 -0.15462472958E+02  0.58001474376E+02  0.28663642350E+03  0.29285439791E+03  0.00000000000E+00 0. -1.
        1    1    1    2  501    0  0.12056635263E+03 -0.46141117940E+03 -0.17336944698E+03  0.50743816077E+03  0.00000000000E+00 0. -1.
       21    1    1    2  503  502 -0.10448268871E+03  0.42548197461E+03 -0.15248120547E+03  0.46389876156E+03  0.00000000000E+00 0. -1.
</event>
<event>
 7   1  0.1436400E+01  0.8040000E+02  0.7546772E-02  0.1297830E+00
        2   -1    0    0  503    0  0.00000000000E+00  0.00000000000E+00  0.39561606924E+03  0.39561606924E+03  0.00000000000E+00 0. -1.
       21   -1    0    0  501  502  0.00000000000E+00  0.00000000000E+00 -0.79835565973E+02  0.79835565973E+02  0.00000000000E+00 0. -1.
       24    2    1    2    0    0 -0.32103314685E+00 -0.12837420210E+02  0.19728620657E+03  0.21416363915E+03  0.82336593401E+02 0.  0.
      -11    1    3    3    0    0 -0.40160791971E+01  0.34787293035E+02  0.95741346988E+02  0.10194454459E+03  0.00000000000E+00 0.  1.
       12    1    3    3    0    0  0.36950460503E+01 -0.47624713244E+02  0.10154485958E+03  0.11221909456E+03  0.00000000000E+00 0. -1.
        1    1    1    2  501    0  0.28582276551E+02  0.64866760747E+02  0.16912733359E+03  0.18338129172E+03  0.00000000000E+00 0. -1.
       21    1    1    2  503  502 -0.28261243404E+02 -0.52029340537E+02 -0.50633036900E+02  0.77906704340E+02  0.00000000000E+00 0. -1.
</event>
<event>
 7   1  0.1436400E+01  0.8040000E+02  0.7546772E-02  0.1297830E+00
       21   -1    0    0  502  503  0.00000000000E+00  0.00000000000E+00  0.18078509404E+03  0.18078509404E+03  0.00000000000E+00 0.  1.
       21   -1    0    0  501  502  0.00000000000E+00  0.00000000000E+00 -0.26450175850E+03  0.26450175850E+03  0.00000000000E+00 0. -1.
       24    2    1    2    0    0  0.30775941119E+02 -0.58536595309E+02  0.28816239243E+01  0.10451036756E+03  0.80872873264E+02 0.  0.
      -11    1    3    3    0    0 -0.27414827632E+02 -0.18225340666E+02  0.67896033586E+01  0.33613011324E+02  0.00000000000E+00 0.  1.
       12    1    3    3    0    0  0.58190768751E+02 -0.40311254643E+02 -0.39079794343E+01  0.70897356241E+02  0.00000000000E+00 0. -1.
       -4    1    1    2    0  503  0.70602158877E+02  0.16677881091E+03 -0.42019045918E+02  0.18591782278E+03  0.00000000000E+00 0.  1.
        3    1    1    2  501    0 -0.10137810000E+03 -0.10824221560E+03 -0.44579242467E+02  0.15485866219E+03  0.00000000000E+00 0. -1.
</event>
<event>
 7   1  0.1436400E+01  0.8040000E+02  0.7546772E-02  0.1297830E+00
        2   -1    0    0  503    0  0.00000000000E+00  0.00000000000E+00  0.14274142884E+03  0.14274142884E+03  0.00000000000E+00 0. -1.
       21   -1    0    0  501  502  0.00000000000E+00  0.00000000000E+00 -0.14505975508E+03  0.14505975508E+03  0.00000000000E+00 0. -1.
       24    2    1    2    0    0 -0.32731673885E+02  0.24725834014E+02  0.92963302566E+02  0.12883887064E+03  0.79212054769E+02 0.  0.
      -11    1    3    3    0    0 -0.67112113040E+00  0.48767881053E+02  0.45262781711E+02  0.66539281888E+02  0.00000000000E+00 0.  1.
       12    1    3    3    0    0 -0.32060552754E+02 -0.24042047039E+02  0.47700520855E+02  0.62299588752E+02  0.00000000000E+00 0. -1.
        1    1    1    2  501    0 -0.19331208915E+02 -0.46805809279E+02 -0.29977897644E+01  0.50729342238E+02  0.00000000000E+00 0. -1.
       21    1    1    2  503  502  0.52062882799E+02  0.22079975265E+02 -0.92283839044E+02  0.10823297105E+03  0.00000000000E+00 0. -1.
</event>
<event>
 7   1  0.1436400E+01  0.8040000E+02  0.7546772E-02  0.1297830E+00
       21   -1    0    0  501  502  0.00000000000E+00  0.00000000000E+00  0.67387042861E+02  0.67387042861E+02  0.00000000000E+00 0. -1.
        2   -1    0    0  503    0  0.00000000000E+00  0.00000000000E+00 -0.35440220412E+03  0.35440220412E+03  0.00000000000E+00 0. -1.
       24    2    1    2    0    0 -0.36782924884E+02 -0.11464048763E+02 -0.29760992957E+03  0.30826236448E+03  0.70495440977E+02 0.  0.
      -11    1    3    3    0    0  0.44579698945E+00 -0.26117424682E+02 -0.41430612245E+02  0.48977691227E+02  0.00000000000E+00 0.  1.
       12    1    3    3    0    0 -0.37228721873E+02  0.14653375919E+02 -0.25617931732E+03  0.25928467325E+03  0.00000000000E+00 0. -1.
        1    1    1    2  501    0  0.66508912789E+02  0.51654213217E+01 -0.20759392617E+02  0.69864650859E+02  0.00000000000E+00 0. -1.
       21    1    1    2  503  502 -0.29725987905E+02  0.62986274413E+01  0.31354160928E+02  0.43662231644E+02  0.00000000000E+00 0. -1.
</event>
<event>
 7   1  0.1436400E+01  0.8040000E+02  0.7546772E-02  0.1297830E+00
       21   -1    0    0  501  502  0.00000000000E+00  0.00000000000E+00  0.10208101305E+03  0.10208101305E+03  0.00000000000E+00 0.  1.
        2   -1    0    0  503    0  0.00000000000E+00  0.00000000000E+00 -0.28228504581E+03  0.28228504581E+03  0.00000000000E+00 0. -1.
       24    2    1    2    0    0  0.33280732607E+02  0.32594632505E+02 -0.22924640512E+03  0.25051495981E+03  0.89631543551E+02 0.  0.
      -11    1    3    3    0    0  0.33983033792E+02 -0.13535267990E+02 -0.34166683611E+02  0.50054094081E+02  0.00000000000E+00 0.  1.
       12    1    3    3    0    0 -0.70230118499E+00  0.46129900495E+02 -0.19507972151E+03  0.20046086573E+03  0.00000000000E+00 0. -1.
        1    1    1    2  501    0 -0.41500655851E+02  0.24752848180E+02 -0.11900571735E+02  0.49765766715E+02  0.00000000000E+00 0. -1.
       21    1    1    2  503  502  0.82199232434E+01 -0.57347480685E+02  0.60942944090E+02  0.84085332332E+02  0.00000000000E+00 0.  1.
</event>
<event>
 7   1  0.1436400E+01  0.8040000E+02  0.7546772E-02  0.1297830E+00
       21   -1    0    0  501  502  0.00000000000E+00  0.00000000000E+00  0.21166038492E+03  0.21166038492E+03  0.00000000000E+00 0.  1.
       -1   -1    0    0    0  501  0.00000000000E+00  0.00000000000E+00 -0.73570815511E+02  0.73570815511E+02  0.00000000000E+00 0.  1.
       24    2    1    2    0    0 -0.92623972060E+02  0.22390589193E+02  0.36639116236E+02  0.12916856852E+03  0.79129991603E+02 0.  0.
      -11    1    3    3    0    0 -0.97284396395E+02 -0.17456543466E+00  0.41253043184E+02  0.10566975834E+03  0.00000000000E+00 0.  1.
       12    1    3    3    0    0  0.46604243343E+01  0.22565154627E+02 -0.46139269471E+01  0.23498810187E+02  0.00000000000E+00 0. -1.
       -2    1    1    2    0  503  0.53677941683E+02 -0.80241789584E+01  0.93964061820E+01  0.55081769401E+02  0.00000000000E+00 0.  1.
       21    1    1    2  503  502  0.38946030378E+02 -0.14366410234E+02  0.92054046986E+02  0.10098086250E+03  0.00000000000E+00 0.  1.
</event>
<event>
 7   1  0.1436400E+01  0.8040000E+02  0.7546772E-02  0.1297830E+00
       -1   -1    0    0    0  502  0.00000000000E+00  0.00000000000E+00  0.55192142218E+03  0.55192142218E+03  0.00000000000E+00 0.  1.
        2   -1    0    0  502    0  0.00000000000E+00  0.00000000000E+00 -0.16599278963E+03  0.16599278963E+03  0.00000000000E+00 0. -1.
       24    2    1    2    0    0 -0.52300364109E+02  0.14809676510E+02  0.60226005692E+02  0.11428705245E+03  0.80496608575E+02 0.  0.
      -11    1    3    3    0    0 -0.38523770664E+02 -0.18707753761E+02 -0.13408631297E+01  0.42846923704E+02  0.00000000000E+00 0.  1.
       12    1    3    3    0    0 -0.13776593446E+02  0.33517430271E+02  0.61566868822E+02  0.71440128748E+02  0.00000000000E+00 0. -1.
        2    1    1    2  501    0  0.12079590779E+03 -0.32514585252E+02 -0.10734497036E+03  0.16483868555E+03  0.00000000000E+00 0. -1.
       -2    1    1    2    0  501 -0.68495543681E+02  0.17704908743E+02  0.43304759721E+03  0.43878847381E+03  0.00000000000E+00 0.  1.
</event>
<event>
 7   1  0.1436400E+01  0.8040000E+02  0.7546772E-02  0.1297830E+00
        2   -1    0    0  503    0  0.00000000000E+00  0.00000000000E+00  0.33261236559E+03  0.33261236559E+03  0.00000000000E+00 0. -1.
       21   -1    0    0  501  502  0.00000000000E+00  0.00000000000E+00 -0.86835017945E+02  0.86835017945E+02  0.00000000000E+00 0.  1.
       24    2    1    2    0    0  0.85800718565E+02 -0.13641941028E+01  0.30202213667E+02  0.12155983330E+03  0.80628748162E+02 0.  0.
      -11    1    3    3    0    0  0.38778309605E+02  0.24755408391E+02 -0.17932244817E+02  0.49377656330E+02  0.00000000000E+00 0.  1.
       12    1    3    3    0    0  0.47022408960E+02 -0.26119602494E+02  0.48134458485E+02  0.72182176972E+02  0.00000000000E+00 0. -1.
        1    1    1    2  501    0 -0.10764720085E+03  0.32327378301E+02  0.23106353004E+03  0.25695006159E+03  0.00000000000E+00 0. -1.
       21    1    1    2  503  502  0.21846482285E+02 -0.30963184198E+02 -0.15488396059E+02  0.40937488643E+02  0.00000000000E+00 0.  1.
</event>
<event>
 7   1  0.1436400E+01  0.8040000E+02  0.7546772E-02  0.1297830E+00
       21   -1    0    0  501  502  0.00000000000E+00  0.00000000000E+00  0.39947426059E+02  0.39947426059E+02  0.00000000000E+00 0.  1.
        2   -1    0    0  503    0  0.00000000000E+00  0.00000000000E+00 -0.95226037928E+03  0.95226037928E+03  0.00000000000E+00 0. -1.
       24    2    1    2    0    0  0.14412074812E+03 -0.74306079548E+01 -0.30143645902E+03  0.34389584207E+03  0.81082719455E+02 0.  0.
      -11    1    3    3    0    0  0.82024792894E+02 -0.49592858863E+01 -0.83025026546E+02  0.11681530807E+03  0.00000000000E+00 0.  1.
       12    1    3    3    0    0  0.62095955222E+02 -0.24713220686E+01 -0.21841143247E+03  0.22708053400E+03  0.00000000000E+00 0. -1.
        1    1    1    2  501    0 -0.12024738353E+03 -0.59828620421E+02 -0.28996676776E+03  0.31956161139E+03  0.00000000000E+00 0. -1.
       21    1    1    2  503  502 -0.23873364586E+02  0.67259228376E+02 -0.32090972645E+03  0.32875035189E+03  0.00000000000E+00 0.  1.
</event>
</LesHouchesEvents>
