<LesHouchesEvents version="1.0">
<header>
<!--
#*********************************************************************
#                                                                    *
#                            MadGraph 5                              *
#                                                                    *
#                           Going Beyond                             *
#                                                                    *
#                   http://madgraph.hep.uiuc.edu                     *
#                   http://madgraph.phys.ucl.ac.be                   *
#                   http://madgraph.roma2.infn.it                    *
#                                                                    *
#                         The MadGraph team                          *
#                                                                    *
#....................................................................*
#                                                                    *
# This file contains all the information necessary to reproduce      *
# the events generated:                                              *
#                                                                    *
# 1. software version                                                *
# 2. proc_card          : code generation info including model       *
# 3. param_card         : model primary parameters in the LH format  *
# 4. run_card           : running parameters (collider and cuts)     *
# 5. pythia_card        : present only if pythia has been run        *
# 6. pgs_card           : present only if pgs has been run           *
# 7. delphes_cards      : present only if delphes has been run       *
#                                                                    *
#                                                                    *
#*********************************************************************
-->
<MGVersion>
# MG    version    : 5.1.5.5
</MGVersion>
<MG5ProcCard>
#************************************************************
#*                        MadGraph 5                        *
#*                                                          *
#*                *                       *                 *
#*                  *        * *        *                   *
#*                    * * * * 5 * * * *                     *
#*                  *        * *        *                   *
#*                *                       *                 *
#*                                                          *
#*                                                          *
#*         VERSION 1.5.5                 2012-11-18         *
#*                                                          *
#*    The MadGraph Development Team - Please visit us at    *
#*    https://server06.fynu.ucl.ac.be/projects/madgraph     *
#*                                                          *
#************************************************************
#*                                                          *
#*               Command File for MadGraph 5                *
#*                                                          *
#*     run as ./bin/mg5  filename                           *
#*                                                          *
#************************************************************
set group_subprocesses Auto
set ignore_six_quark_processes False
set gauge unitary
set complex_mass_scheme False
import model sm
define p = g u c d s u~ c~ d~ s~
define j = g u c d s u~ c~ d~ s~
define l+ = e+ mu+
define l- = e- mu-
define vl = ve vm vt
define vl~ = ve~ vm~ vt~
# Specify process(es) to run
generate p p > w+ j j , w+ > e+ ve QED=2 @1
add process p p > w- j j , w- > e- ve~ QED=2 @2
# Output processes to MadEvent directory
output -f
</MG5ProcCard>
<MGProcCard>
#*********************************************************************
#                        MadGraph/MadEvent                           *
#                   http://madgraph.hep.uiuc.edu                     *
#                                                                    *
#                          proc_card.dat                             *
#*********************************************************************
#                                                                    *
#            This Files is generated by MADGRAPH 5                   *
#                                                                    *
# WARNING: This Files is generated for MADEVENT (compatibility issue)*
#          This files is NOT a valid MG4 proc_card.dat               *
#          Running this in MG4 will NEVER reproduce the result of MG5*
#                                                                    *
#*********************************************************************
#*********************************************************************
# Process(es) requested : mg2 input                                  *
#*********************************************************************
# Begin PROCESS # This is TAG. Do not modify this line
p p > w+ j j , w+ > e+ ve @1           #Process
# Be carefull the coupling are here in MG5 convention
QED=2
end_coup           # End the couplings input
done               # this tells MG there are no more procs
# End PROCESS  # This is TAG. Do not modify this line
#*********************************************************************
# Model information                                                  *
#*********************************************************************
# Begin MODEL  # This is TAG. Do not modify this line
sm
# End   MODEL  # This is TAG. Do not modify this line
#*********************************************************************
# Start multiparticle definitions                                    *
#*********************************************************************
# Begin MULTIPARTICLES # This is TAG. Do not modify this line
# End  MULTIPARTICLES # This is TAG. Do not modify this line
</MGProcCard>
<slha>
######################################################################
## PARAM_CARD AUTOMATICALY GENERATED BY MG5 FOLLOWING UFO MODEL   ####
######################################################################
##                                                                  ##
##  Width set on Auto will be computed following the information    ##
##        present in the decay.py files of the model. By default,   ##
##        this is only 1->2 decay modes.                            ##
##                                                                  ##
######################################################################
###################################
## INFORMATION FOR MASS
###################################
Block mass 
    5 4.700000e+00 # MB 
    6 1.730000e+02 # MT 
   15 1.777000e+00 # MTA 
   23 9.118800e+01 # MZ 
   25 1.200000e+02 # MH 
##  Not dependent paramater.
## Those values should be edited following the 
## analytical expression. MG5 ignore those values 
## but they are important for interfacing the output of MG5
## to external program such as Pythia.
  1 0.000000 # d : 0.0 
  2 0.000000 # u : 0.0 
  3 0.000000 # s : 0.0 
  4 0.000000 # c : 0.0 
  11 0.000000 # e- : 0.0 
  12 0.000000 # ve : 0.0 
  13 0.000000 # mu- : 0.0 
  14 0.000000 # vm : 0.0 
  16 0.000000 # vt : 0.0 
  21 0.000000 # g : 0.0 
  22 0.000000 # a : 0.0 
  24 80.419002 # w+ : cmath.sqrt(MZ__exp__2/2. + cmath.sqrt(MZ__exp__4/4. - (aEW*cmath.pi*MZ__exp__2)/(Gf*sqrt__2))) 
###################################
## INFORMATION FOR SMINPUTS
###################################
Block sminputs 
    1 1.325070e+02 # aEWM1 
    2 1.166390e-05 # Gf 
    3 1.180000e-01 # aS 
###################################
## INFORMATION FOR YUKAWA
###################################
Block yukawa 
    5 4.200000e+00 # ymb 
    6 1.645000e+02 # ymt 
   15 1.777000e+00 # ymtau 
###################################
## INFORMATION FOR DECAY
###################################
DECAY   6 1.491500e+00 # WT 
DECAY  23 2.441404e+00 # WZ 
DECAY  24 2.047600e+00 # WW 
DECAY  25 5.753088e-03 # WH 
##  Not dependent paramater.
## Those values should be edited following the 
## analytical expression. MG5 ignore those values 
## but they are important for interfacing the output of MG5
## to external program such as Pythia.
DECAY  1 0.000000 # d : 0.0 
DECAY  2 0.000000 # u : 0.0 
DECAY  3 0.000000 # s : 0.0 
DECAY  4 0.000000 # c : 0.0 
DECAY  5 0.000000 # b : 0.0 
DECAY  11 0.000000 # e- : 0.0 
DECAY  12 0.000000 # ve : 0.0 
DECAY  13 0.000000 # mu- : 0.0 
DECAY  14 0.000000 # vm : 0.0 
DECAY  15 0.000000 # ta- : 0.0 
DECAY  16 0.000000 # vt : 0.0 
DECAY  21 0.000000 # g : 0.0 
DECAY  22 0.000000 # a : 0.0 
</slha>
<MGRunCard>
#*********************************************************************
#                       MadGraph/MadEvent                            *
#                  http://madgraph.hep.uiuc.edu                      *
#                                                                    *
#                        run_card.dat                                *
#                                                                    *
#  This file is used to set the parameters of the run.               *
#                                                                    *
#  Some notation/conventions:                                        *
#                                                                    *
#   Lines starting with a '# ' are info or comments                  *
#                                                                    *
#   mind the format:   value    = variable     ! comment             *
#*********************************************************************
#
#*******************                                                 
# Running parameters
#*******************                                                 
#                                                                    
#*********************************************************************
# Tag name for the run (one word)                                    *
#*********************************************************************
  tag_1     = run_tag ! name of the run 
#*********************************************************************
# Run to generate the grid pack                                      *
#*********************************************************************
  .false.     = gridpack  !True = setting up the grid pack
#*********************************************************************
# Number of events and rnd seed                                      *
# Warning: Do not generate more than 1M events in a single run       *
# If you want to run Pythia, avoid more than 50k events in a run.    *
#*********************************************************************
  1000        = nevents ! Number of unweighted events requested 
      387 = iseed   ! rnd seed (0=assigned automatically=default))
#*********************************************************************
# Collider type and energy                                           *
# lpp: 0=No PDF, 1=proton, -1=antiproton, 2=photon from proton,      *
#                                         3=photon from electron     *
#*********************************************************************
        1     = lpp1    ! beam 1 type 
        1     = lpp2    ! beam 2 type
     3500     = ebeam1  ! beam 1 total energy in GeV
     3500     = ebeam2  ! beam 2 total energy in GeV
#*********************************************************************
# Beam polarization from -100 (left-handed) to 100 (right-handed)    *
#*********************************************************************
        0     = polbeam1 ! beam polarization for beam 1
        0     = polbeam2 ! beam polarization for beam 2
#*********************************************************************
# PDF CHOICE: this automatically fixes also alpha_s and its evol.    *
#*********************************************************************
 'lhapdf'    = pdlabel     ! PDF set                                  
 10042       = lhaid          ! PDF set cteq6m
#*********************************************************************
# Renormalization and factorization scales                           *
#*********************************************************************
 T        = fixed_ren_scale  ! if .true. use fixed ren scale
 T        = fixed_fac_scale  ! if .true. use fixed fac scale
 91.1880  = scale            ! fixed ren scale
 80.4     = dsqrt_q2fact1    ! fixed fact scale for pdf1
 80.4     = dsqrt_q2fact2    ! fixed fact scale for pdf2
 1        = scalefact        ! scale factor for event-by-event scales
#*********************************************************************
# Matching - Warning! ickkw > 1 is still beta
#*********************************************************************
 0        = ickkw            ! 0 no matching, 1 MLM, 2 CKKW matching
 1        = highestmult      ! for ickkw=2, highest mult group
 1        = ktscheme         ! for ickkw=1, 1 Durham kT, 2 Pythia pTE
 1        = alpsfact         ! scale factor for QCD emission vx
 F        = chcluster        ! cluster only according to channel diag
 F        = pdfwgt           ! for ickkw=1, perform pdf reweighting
#*********************************************************************
# Automatic ptj and mjj cuts if xqcut > 0
# (turn off for VBF and single top processes)
#**********************************************************
   F  = auto_ptj_mjj  ! Automatic setting of ptj and mjj
#**********************************************************
#                                                                    
#**********************************
# BW cutoff (M+/-bwcutoff*Gamma)
#**********************************
  5  = bwcutoff      ! (M+/-bwcutoff*Gamma)
#**********************************************************
# Apply pt/E/eta/dr/mij cuts on decay products or not
# (note that etmiss/ptll/ptheavy/ht/sorted cuts always apply)
#**********************************************************
   F  = cut_decays    ! Cut decay products 
#*************************************************************
# Number of helicities to sum per event (0 = all helicities)
# 0 gives more stable result, but longer run time (needed for
# long decay chains e.g.).
# Use >=2 if most helicities contribute, e.g. pure QCD.
#*************************************************************
   0  = nhel          ! Number of helicities used per event
#*******************                                                 
# Standard Cuts
#*******************                                                 
#                                                                    
#*********************************************************************
# Minimum and maximum pt's (for max, -1 means no cut)                *
#*********************************************************************
  5 = ptj       ! minimum pt for the jets 
  0 = ptb       ! minimum pt for the b 
  0  = pta       ! minimum pt for the photons 
  0  = ptl       ! minimum pt for the charged leptons 
  0  = misset    ! minimum missing Et (sum of neutrino's momenta)
  0  = ptheavy   ! minimum pt for one heavy final state
  0  = ptonium   ! minimum pt for the quarkonium states
 -1  = ptjmax    ! maximum pt for the jets
 -1  = ptbmax    ! maximum pt for the b
 -1  = ptamax    ! maximum pt for the photons
 -1  = ptlmax    ! maximum pt for the charged leptons
 -1  = missetmax ! maximum missing Et (sum of neutrino's momenta)
#*********************************************************************
# Minimum and maximum E's (in the lab frame)                         *
#*********************************************************************
  0  = ej     ! minimum E for the jets 
  0  = eb     ! minimum E for the b 
  0  = ea     ! minimum E for the photons 
  0  = el     ! minimum E for the charged leptons 
 -1   = ejmax ! maximum E for the jets
 -1   = ebmax ! maximum E for the b
 -1   = eamax ! maximum E for the photons
 -1   = elmax ! maximum E for the charged leptons
#*********************************************************************
# Maximum and minimum absolute rapidity (for max, -1 means no cut)   *
#*********************************************************************
  -1  = etaj    ! max rap for the jets 
  -1  = etab    ! max rap for the b
  -1  = etaa    ! max rap for the photons 
  -1  = etal    ! max rap for the charged leptons 
  -1  = etaonium ! max rap for the quarkonium states
   0  = etajmin ! min rap for the jets
   0  = etabmin ! min rap for the b
   0  = etaamin ! min rap for the photons
   0  = etalmin ! main rap for the charged leptons
#*********************************************************************
# Minimum and maximum DeltaR distance                                *
#*********************************************************************
 1d-2 = drjj    ! min distance between jets 
 0    = drbb    ! min distance between b's 
 0    = drll    ! min distance between leptons 
 0    = draa    ! min distance between gammas 
 0    = drbj    ! min distance between b and jet 
 0   = draj    ! min distance between gamma and jet 
 0   = drjl    ! min distance between jet and lepton 
 0   = drab    ! min distance between gamma and b 
 0   = drbl    ! min distance between b and lepton 
 0   = dral    ! min distance between gamma and lepton 
 -1  = drjjmax ! max distance between jets
 -1  = drbbmax ! max distance between b's
 -1  = drllmax ! max distance between leptons
 -1  = draamax ! max distance between gammas
 -1  = drbjmax ! max distance between b and jet
 -1  = drajmax ! max distance between gamma and jet
 -1  = drjlmax ! max distance between jet and lepton
 -1  = drabmax ! max distance between gamma and b
 -1  = drblmax ! max distance between b and lepton
 -1  = dralmax ! maxdistance between gamma and lepton
#*********************************************************************
# Minimum and maximum invariant mass for pairs                       *
#*********************************************************************
 5.0 = mmjj    ! min invariant mass of a jet pair 
 0   = mmbb    ! min invariant mass of a b pair 
 0   = mmaa    ! min invariant mass of gamma gamma pair
 0   = mmll    ! min invariant mass of l+l- (same flavour) lepton pair
 -1  = mmjjmax ! max invariant mass of a jet pair
 -1  = mmbbmax ! max invariant mass of a b pair
 -1  = mmaamax ! max invariant mass of gamma gamma pair
 -1  = mmllmax ! max invariant mass of l+l- (same flavour) lepton pair
#*********************************************************************
# Minimum and maximum invariant mass for all letpons                 *
#*********************************************************************
 0   = mmnl    ! min invariant mass for all letpons (l+- and vl) 
 -1  = mmnlmax ! max invariant mass for all letpons (l+- and vl) 
#*********************************************************************
# Minimum and maximum pt for 4-momenta sum of leptons                *
#*********************************************************************
 0   = ptllmin  ! Minimum pt for 4-momenta sum of leptons(l and vl)
 -1  = ptllmax  ! Maximum pt for 4-momenta sum of leptons(l and vl)
#*********************************************************************
# Inclusive cuts                                                     *
#*********************************************************************
 0  = xptj ! minimum pt for at least one jet  
 0  = xptb ! minimum pt for at least one b 
 0  = xpta ! minimum pt for at least one photon 
 0  = xptl ! minimum pt for at least one charged lepton 
#*********************************************************************
# Control the pt's of the jets sorted by pt                          *
#*********************************************************************
 0   = ptj1min ! minimum pt for the leading jet in pt
 0   = ptj2min ! minimum pt for the second jet in pt
 0   = ptj3min ! minimum pt for the third jet in pt
 0   = ptj4min ! minimum pt for the fourth jet in pt
 -1  = ptj1max ! maximum pt for the leading jet in pt 
 -1  = ptj2max ! maximum pt for the second jet in pt
 -1  = ptj3max ! maximum pt for the third jet in pt
 -1  = ptj4max ! maximum pt for the fourth jet in pt
 0   = cutuse  ! reject event if fails any (0) / all (1) jet pt cuts
#*********************************************************************
# Control the pt's of leptons sorted by pt                           *
#*********************************************************************
 0   = ptl1min ! minimum pt for the leading lepton in pt
 0   = ptl2min ! minimum pt for the second lepton in pt
 0   = ptl3min ! minimum pt for the third lepton in pt
 0   = ptl4min ! minimum pt for the fourth lepton in pt
 -1  = ptl1max ! maximum pt for the leading lepton in pt 
 -1  = ptl2max ! maximum pt for the second lepton in pt
 -1  = ptl3max ! maximum pt for the third lepton in pt
 -1  = ptl4max ! maximum pt for the fourth lepton in pt
#*********************************************************************
# Control the Ht(k)=Sum of k leading jets                            *
#*********************************************************************
 0   = htjmin ! minimum jet HT=Sum(jet pt)
 -1  = htjmax ! maximum jet HT=Sum(jet pt)
 0   = ihtmin  !inclusive Ht for all partons (including b)
 -1  = ihtmax  !inclusive Ht for all partons (including b)
 0   = ht2min ! minimum Ht for the two leading jets
 0   = ht3min ! minimum Ht for the three leading jets
 0   = ht4min ! minimum Ht for the four leading jets
 -1  = ht2max ! maximum Ht for the two leading jets
 -1  = ht3max ! maximum Ht for the three leading jets
 -1  = ht4max ! maximum Ht for the four leading jets
#*********************************************************************
# WBF cuts                                                           *
#*********************************************************************
 0   = xetamin ! minimum rapidity for two jets in the WBF case  
 0   = deltaeta ! minimum rapidity for two jets in the WBF case 
#*********************************************************************
# maximal pdg code for quark to be considered as a light jet         *
# (otherwise b cuts are applied)                                     *
#*********************************************************************
 4 = maxjetflavor    ! Maximum jet pdg code
#*********************************************************************
# Jet measure cuts                                                   *
#*********************************************************************
 2.0 = xqcut   ! minimum kt jet measure between partons
#*********************************************************************
 0d0 = kt_durham    ! minimum durham kt jet measure between partons
 0.4 = d_parameter  ! D parameter for hadronic kT
 F   = do_kt_durham        ! T: enable durham kt cut
 15  = pt_pythia    ! minimum pythia pt jet measure between partons
 2   = njets_requested  ! number of jets above the pythia pt cut
 T   = do_pt_pythia        ! T: enable pythia pt cut
#*********************************************************************
</MGRunCard>
<MGGenerationInfo>
#  Number of Events        :        1000
#  Integrated weight (pb)  :  .91728E+03
#  Truncated wgt (pb)      :  .00000E+00
#  Unit wgt                :  .91728E+00
</MGGenerationInfo>
</header>
<init>
     2212     2212  0.35000000000E+04  0.35000000000E+04 0 0 10042 10042 3  2
  0.56146182650E+03  0.35740796170E+01  0.91728000000E+00   1
  0.34701424400E+03  0.22089774901E+01  0.91728000000E+00   2
</init>
<event>
 7   2  0.9172800E+00  0.8040000E+02  0.7957747E-01  0.1297830E+00
       21   -1    0    0  501  502  0.00000000000E+00  0.00000000000E+00  0.18888249766E+03  0.18888249766E+03  0.00000000000E+00 0. -1.
        1   -1    0    0  503    0  0.00000000000E+00  0.00000000000E+00 -0.17089912290E+03  0.17089912290E+03  0.00000000000E+00 0. -1.
      -24    2    1    2    0    0 -0.85478681006E+02  0.24324558799E+02 -0.47618001975E+02  0.13051752605E+03  0.82879801084E+02 0.  0.
       11    1    3    3    0    0 -0.43338655800E+02  0.44847062302E+02 -0.54895326562E+02  0.83084264226E+02  0.00000000000E+00 0. -1.
      -12    1    3    3    0    0 -0.42140025206E+02 -0.20522503503E+02  0.72773245869E+01  0.47433261827E+02  0.00000000000E+00 0.  1.
       21    1    1    2  503  502  0.23973817916E+02  0.75209114239E+02  0.78776999148E+02  0.11152116573E+03  0.00000000000E+00 0. -1.
        2    1    1    2  501    0  0.61504863090E+02 -0.99533673038E+02 -0.13175622407E+02  0.11774292878E+03  0.00000000000E+00 0. -1.
</event>
<event>
 7   1  0.9172800E+00  0.8040000E+02  0.7957747E-01  0.1297830E+00
       21   -1    0    0  501  502  0.00000000000E+00  0.00000000000E+00  0.34223941547E+02  0.34223941547E+02  0.00000000000E+00 0.  1.
        2   -1    0    0  503    0  0.00000000000E+00  0.00000000000E+00 -0.53603094455E+03  0.53603094455E+03  0.00000000000E+00 0. -1.
       24    2    1    2    0    0  0.51230984916E+01 -0.63648324763E+02 -0.28032366592E+03  0.29837721307E+03  0.79813834750E+02 0.  0.
      -11    1    3    3    0    0 -0.30272770208E+02 -0.20059504519E+02 -0.53183297353E+02  0.64399436760E+02  0.00000000000E+00 0.  1.
       12    1    3    3    0    0  0.35395868700E+02 -0.43588820244E+02 -0.22714036857E+03  0.23397777631E+03  0.00000000000E+00 0. -1.
       21    1    1    2  503  502  0.36323338888E+01  0.15087909957E+02  0.20050734052E+02  0.25354897207E+02  0.00000000000E+00 0.  1.
        1    1    1    2  501    0 -0.87554323805E+01  0.48560414806E+02 -0.24153407113E+03  0.24652277582E+03  0.00000000000E+00 0. -1.
</event>
<event>
 7   2  0.9172800E+00  0.8040000E+02  0.7957747E-01  0.1297830E+00
       21   -1    0    0  503  502  0.00000000000E+00  0.00000000000E+00  0.15661518330E+02  0.15661518330E+02  0.00000000000E+00 0. -1.
        1   -1    0    0  502    0  0.00000000000E+00  0.00000000000E+00 -0.68811317763E+03  0.68811317763E+03  0.00000000000E+00 0. -1.
      -24    2    1    2    0    0 -0.80436148878E+02  0.16672060565E+02 -0.38426021308E+03  0.40092444035E+03  0.79602536756E+02 0.  0.
       11    1    3    3    0    0 -0.64040990524E+02  0.40675337743E+02 -0.19142770386E+03  0.20591332491E+03  0.00000000000E+00 0. -1.
      -12    1    3    3    0    0 -0.16395158354E+02 -0.24003277178E+02 -0.19283250922E+03  0.19501111544E+03  0.00000000000E+00 0.  1.
       21    1    1    2  503  501  0.54271001306E+02 -0.31683109993E+02 -0.18903742883E+03  0.19920921299E+03  0.00000000000E+00 0. -1.
        2    1    1    2  501    0  0.26165147572E+02  0.15011049428E+02 -0.99154017387E+02  0.10364104262E+03  0.00000000000E+00 0. -1.
</event>
<event>
 7   1  0.9172800E+00  0.8040000E+02  0.7957747E-01  0.1297830E+00
       -3   -1    0    0    0  501  0.00000000000E+00  0.00000000000E+00  0.71000866252E+02  0.71000866252E+02  0.00000000000E+00 0.  1.
        2   -1    0    0  501    0  0.00000000000E+00  0.00000000000E+00 -0.64136043418E+03  0.64136043418E+03  0.00000000000E+00 0.  1.
       24    2    1    2    0    0  0.52214966035E+02  0.11315281435E+03 -0.58638234675E+02  0.16463232366E+03  0.90196437598E+02 0.  0.
      -11    1    3    3    0    0  0.12786550197E+02  0.10158582591E+03 -0.67450253769E+02  0.12260796314E+03  0.00000000000E+00 0.  1.
       12    1    3    3    0    0  0.39428415837E+02  0.11566988444E+02  0.88120190934E+01  0.42024360526E+02  0.00000000000E+00 0. -1.
        2    1    1    2  502    0 -0.28054482108E+02 -0.15752487786E+02 -0.38378126510E+03  0.38512758182E+03  0.00000000000E+00 0.  1.
       -4    1    1    2    0  502 -0.24160483926E+02 -0.97400326568E+02 -0.12794006815E+03  0.16260139494E+03  0.00000000000E+00 0.  1.
</event>
<event>
 7   2  0.9172800E+00  0.8040000E+02  0.7957747E-01  0.1297830E+00
       -4   -1    0    0    0  501  0.00000000000E+00  0.00000000000E+00  0.58920739348E+02  0.58920739348E+02  0.00000000000E+00 0.  1.
        3   -1    0    0  503    0  0.00000000000E+00  0.00000000000E+00 -0.10845111369E+03  0.10845111369E+03  0.00000000000E+00 0. -1.
      -24    2    1    2    0    0  0.68002140901E+00 -0.43919565998E+01  0.13786023561E+02  0.80646822822E+02  0.79335388534E+02 0.  0.
       11    1    3    3    0    0 -0.50085206900E+01  0.28195832262E+02 -0.18764313127E+02  0.34237255784E+02  0.00000000000E+00 0. -1.
      -12    1    3    3    0    0  0.56885420990E+01 -0.32587788862E+02  0.32550336688E+02  0.46409567038E+02  0.00000000000E+00 0.  1.
       21    1    1    2  502  501  0.13109959867E+02  0.20961125826E+02 -0.59316654015E+01  0.25424879509E+02  0.00000000000E+00 0. -1.
       21    1    1    2  503  502 -0.13789981276E+02 -0.16569169226E+02 -0.57384732507E+02  0.61300150712E+02  0.00000000000E+00 0.  1.
</event>
<event>
 7   1  0.9172800E+00  0.8040000E+02  0.7957747E-01  0.1297830E+00
       21   -1    0    0  501  502  0.00000000000E+00  0.00000000000E+00  0.12280411921E+03  0.12280411921E+03  0.00000000000E+00 0. -1.
        2   -1    0    0  503    0  0.00000000000E+00  0.00000000000E+00 -0.25382459542E+03  0.25382459542E+03  0.00000000000E+00 0. -1.
       24    2    1    2    0    0 -0.52924031349E+02  0.45302668223E+02 -0.75673071000E+02  0.13003383950E+03  0.79555646544E+02 0.  0.
      -11    1    3    3    0    0  0.17537778965E+02  0.27394906602E+02 -0.17591285787E+02  0.36979831454E+02  0.00000000000E+00 0.  1.
       12    1    3    3    0    0 -0.70461810314E+02  0.17907761621E+02 -0.58081785214E+02  0.93054008042E+02  0.00000000000E+00 0. -1.
       21    1    1    2  503  502  0.57379103552E+02 -0.92498862585E+02 -0.12283293171E+03  0.16412291192E+03  0.00000000000E+00 0. -1.
        1    1    1    2  501    0 -0.44550722031E+01  0.47196194363E+02  0.67485526499E+02  0.82471963221E+02  0.00000000000E+00 0. -1.
</event>
<event>
 7   1  0.9172800E+00  0.8040000E+02  0.7957747E-01  0.1297830E+00
        2   -1    0    0  502    0  0.00000000000E+00  0.00000000000E+00  0.26036300139E+03  0.26036300139E+03  0.00000000000E+00 0. -1.
       -1   -1    0    0    0  501  0.00000000000E+00  0.00000000000E+00 -0.65682511584E+02  0.65682511584E+02  0.00000000000E+00 0.  1.
       24    2    1    2    0    0  0.23716047379E+02  0.92132884659E+02  0.75764565649E+02  0.14584043122E+03  0.80487530899E+02 0.  0.
      -11    1    3    3    0    0 -0.27628570492E+02  0.14556375748E+02  0.14349831291E+02  0.34367770373E+02  0.00000000000E+00 0.  1.
       12    1    3    3    0    0  0.51344617870E+02  0.77576508910E+02  0.61414734358E+02  0.11147266084E+03  0.00000000000E+00 0. -1.
       21    1    1    2  502  503 -0.43038309188E+02 -0.97366084947E+02  0.11967742218E+03  0.16017220713E+03  0.00000000000E+00 0.  1.
       21    1    1    2  503  501  0.19322261809E+02  0.52332002883E+01 -0.76149802663E+00  0.20032874630E+02  0.00000000000E+00 0.  1.
</event>
<event>
 7   1  0.9172800E+00  0.8040000E+02  0.7957747E-01  0.1297830E+00
       21   -1    0    0  503  502  0.00000000000E+00  0.00000000000E+00  0.46228324382E+02  0.46228324382E+02  0.00000000000E+00 0. -1.
        2   -1    0    0  502    0  0.00000000000E+00  0.00000000000E+00 -0.46432888937E+03  0.46432888937E+03  0.00000000000E+00 0. -1.
       24    2    1    2    0    0 -0.88515423239E+01  0.85940205087E+02 -0.26066670976E+03  0.28603213219E+03  0.80019862627E+02 0.  0.
      -11    1    3    3    0    0 -0.27265233772E+02  0.90023774847E+01 -0.27295752373E+02  0.39616838221E+02  0.00000000000E+00 0.  1.
       12    1    3    3    0    0  0.18413691448E+02  0.76937827603E+02 -0.23337095738E+03  0.24641529396E+03  0.00000000000E+00 0. -1.
       21    1    1    2  503  501  0.53046747087E+01 -0.34154651875E+02  0.19808847551E+02  0.39838050401E+02  0.00000000000E+00 0. -1.
        1    1    1    2  501    0  0.35468676152E+01 -0.51785553213E+02 -0.17724270278E+03  0.18468703117E+03  0.00000000000E+00 0. -1.
</event>
<event>
 7   1  0.9172800E+00  0.8040000E+02  0.7957747E-01  0.1297830E+00
       21   -1    0    0  503  502  0.00000000000E+00  0.00000000000E+00  0.73219889297E+02  0.73219889297E+02  0.00000000000E+00 0. -1.
       -1   -1    0    0    0  501  0.00000000000E+00  0.00000000000E+00 -0.78297944311E+02  0.78297944311E+02  0.00000000000E+00 0.  1.
       24    2    1    2    0    0 -0.30804886407E+02  0.78019135516E+00  0.50370396322E+00  0.84734541214E+02  0.78931229763E+02 0.  0.
      -11    1    3    3    0    0  0.82911549048E+01 -0.11395820539E+01 -0.32484104384E+02  0.33544879409E+02  0.00000000000E+00 0.  1.
       12    1    3    3    0    0 -0.39096041311E+02  0.19197734091E+01  0.32987808347E+02  0.51189661805E+02  0.00000000000E+00 0. -1.
       21    1    1    2  503  501  0.41887676805E+01  0.16280691535E+02  0.19991509038E+02  0.26120243589E+02  0.00000000000E+00 0.  1.
       -2    1    1    2    0  502  0.26616118726E+02 -0.17060882890E+02 -0.25573268016E+02  0.40663048804E+02  0.00000000000E+00 0.  1.
</event>
<event>
 7   1  0.9172800E+00  0.8040000E+02  0.7957747E-01  0.1297830E+00
        2   -1    0    0  502    0  0.00000000000E+00  0.00000000000E+00  0.15943749065E+04  0.15943749065E+04  0.00000000000E+00 0. -1.
       21   -1    0    0  503  502  0.00000000000E+00  0.00000000000E+00 -0.18693885198E+02  0.18693885198E+02  0.00000000000E+00 0. -1.
       24    2    1    2    0    0  0.22477601103E+02 -0.12770908536E+03  0.10663343839E+04  0.10770983541E+04  0.79101157448E+02 0.  0.
      -11    1    3    3    0    0  0.87087377718E+00  0.45829263342E+01  0.34682848413E+01  0.58129712420E+01  0.00000000000E+00 0.  1.
       12    1    3    3    0    0  0.21606727325E+02 -0.13229201169E+03  0.10628660990E+04  0.10712853829E+04  0.00000000000E+00 0. -1.
       21    1    1    2  503  501 -0.50911837231E+02  0.42013694800E+02  0.12725928016E+03  0.14336000177E+03  0.00000000000E+00 0. -1.
        1    1    1    2  501    0  0.28434236128E+02  0.85695390557E+02  0.38208735727E+03  0.39261043584E+03  0.00000000000E+00 0. -1.
</event>
<event>
 7   1  0.9172800E+00  0.8040000E+02  0.7957747E-01  0.1297830E+00
        2   -1    0    0  501    0  0.00000000000E+00  0.00000000000E+00  0.40546712797E+03  0.40546712797E+03  0.00000000000E+00 0. -1.
       -2   -1    0    0    0  501  0.00000000000E+00  0.00000000000E+00 -0.58305586036E+02  0.58305586036E+02  0.00000000000E+00 0.  1.
       24    2    1    2    0    0  0.97930053435E+02 -0.64368146967E+02  0.21801676193E+03  0.25999647610E+03  0.79582067022E+02 0.  0.
      -11    1    3    3    0    0  0.78361660128E+02 -0.43726031885E+01  0.11683751433E+03  0.14075039677E+03  0.00000000000E+00 0.  1.
       12    1    3    3    0    0  0.19568393308E+02 -0.59995543779E+02  0.10117924760E+03  0.11924607933E+03  0.00000000000E+00 0. -1.
        1    1    1    2  502    0 -0.55889778176E+02  0.46598285588E+02  0.13917081721E+03  0.15704643863E+03  0.00000000000E+00 0. -1.
       -2    1    1    2    0  502 -0.42040275259E+02  0.17769861380E+02 -0.10026037214E+02  0.46729799267E+02  0.00000000000E+00 0.  1.
</event>
<event>
 7   2  0.9172800E+00  0.8040000E+02  0.7957747E-01  0.1297830E+00
        2   -1    0    0  502    0  0.00000000000E+00  0.00000000000E+00  0.23920063044E+03  0.23920063044E+03  0.00000000000E+00 0. -1.
        3   -1    0    0  501    0  0.00000000000E+00  0.00000000000E+00 -0.88389181571E+02  0.88389181571E+02  0.00000000000E+00 0. -1.
      -24    2    1    2    0    0  0.26596362496E+02  0.87147503078E+01 -0.42249031489E+02  0.97136809913E+02  0.82868967698E+02 0.  0.
       11    1    3    3    0    0 -0.50528863652E+01 -0.20173998328E+02 -0.49486131377E+02  0.53678664922E+02  0.00000000000E+00 0. -1.
      -12    1    3    3    0    0  0.31649248861E+02  0.28888748636E+02  0.72370998880E+01  0.43458144990E+02  0.00000000000E+00 0.  1.
        2    1    1    2  501    0 -0.96226958623E+00  0.18938751070E+02  0.19178930199E+03  0.19272451482E+03  0.00000000000E+00 0. -1.
        4    1    1    2  502    0 -0.25634092909E+02 -0.27653501378E+02  0.12711783672E+01  0.37728487277E+02  0.00000000000E+00 0. -1.
</event>
<event>
 7   1  0.9172800E+00  0.8040000E+02  0.7957747E-01  0.1297830E+00
       21   -1    0    0  503  502  0.00000000000E+00  0.00000000000E+00  0.14551200849E+03  0.14551200849E+03  0.00000000000E+00 0. -1.
        4   -1    0    0  502    0  0.00000000000E+00  0.00000000000E+00 -0.14876570431E+03  0.14876570431E+03  0.00000000000E+00 0. -1.
       24    2    1    2    0    0  0.11225556710E+03  0.43914803785E+01  0.66386808677E+02  0.15309700879E+03  0.80068022881E+02 0.  0.
      -11    1    3    3    0    0  0.14223256294E+00 -0.14203985401E+02 -0.89128190338E+01  0.16769370128E+02  0.00000000000E+00 0.  1.
       12    1    3    3    0    0  0.11211333454E+03  0.18595465779E+02  0.75299627711E+02  0.13632763866E+03  0.00000000000E+00 0. -1.
       21    1    1    2  503  501 -0.31404136206E+02  0.13191280252E+02 -0.16737826875E+01  0.34103243160E+02  0.00000000000E+00 0. -1.
        3    1    1    2  501    0 -0.80851430898E+02 -0.17582760630E+02 -0.67966721809E+02  0.10707746085E+03  0.00000000000E+00 0. -1.
</event>
<event>
 7   1  0.9172800E+00  0.8040000E+02  0.7957747E-01  0.1297830E+00
        2   -1    0    0  503    0  0.00000000000E+00  0.00000000000E+00  0.10356515914E+04  0.10356515914E+04  0.00000000000E+00 0. -1.
       21   -1    0    0  501  502  0.00000000000E+00  0.00000000000E+00 -0.11150673140E+02  0.11150673140E+02  0.00000000000E+00 0. -1.
       24    2    1    2    0    0  0.17166600795E+02  0.55436204309E+02  0.67760804677E+03  0.68487105734E+03  0.80795019734E+02 0.  0.
      -11    1    3    3    0    0 -0.17626762497E+02  0.66802255517E+01  0.37543852721E+02  0.42010344520E+02  0.00000000000E+00 0.  1.
       12    1    3    3    0    0  0.34793363292E+02  0.48755978758E+02  0.64006419404E+03  0.64286071282E+03  0.00000000000E+00 0. -1.
       21    1    1    2  503  502 -0.24405287384E+02  0.13810983575E+01  0.23464275175E+03  0.23591258219E+03  0.00000000000E+00 0.  1.
        1    1    1    2  501    0  0.72386865888E+01 -0.56817302667E+02  0.11225011971E+03  0.12601862497E+03  0.00000000000E+00 0. -1.
</event>
<event>
 7   2  0.9172800E+00  0.8040000E+02  0.7957747E-01  0.1297830E+00
       21   -1    0    0  503  502  0.00000000000E+00  0.00000000000E+00  0.79188728177E+01  0.79188728177E+01  0.00000000000E+00 0. -1.
        1   -1    0    0  502    0  0.00000000000E+00  0.00000000000E+00 -0.71939798847E+03  0.71939798847E+03  0.00000000000E+00 0. -1.
      -24    2    1    2    0    0  0.37592555275E+02 -0.10695714160E+02 -0.41795893055E+03  0.42829428379E+03  0.84963094222E+02 0.  0.
       11    1    3    3    0    0  0.61748420187E+02 -0.23497163659E+02 -0.30509911460E+03  0.31217055246E+03  0.00000000000E+00 0. -1.
      -12    1    3    3    0    0 -0.24155864912E+02  0.12801449499E+02 -0.11285981596E+03  0.11612373132E+03  0.00000000000E+00 0.  1.
       21    1    1    2  503  501  0.44727796218E+01  0.13729646997E+02 -0.93087545378E+02  0.94200849617E+02  0.00000000000E+00 0.  1.
        2    1    1    2  501    0 -0.42065334897E+02 -0.30339328367E+01 -0.20043263972E+03  0.20482172788E+03  0.00000000000E+00 0. -1.
</event>
<event>
 7   1  0.9172800E+00  0.8040000E+02  0.7957747E-01  0.1297830E+00
        2   -1    0    0  502    0  0.00000000000E+00  0.00000000000E+00  0.14070739061E+03  0.14070739061E+03  0.00000000000E+00 0. -1.
        2   -1    0    0  501    0  0.00000000000E+00  0.00000000000E+00 -0.21516258149E+03  0.21516258149E+03  0.00000000000E+00 0. -1.
       24    2    1    2    0    0 -0.80680507589E+02 -0.65291059908E+02 -0.82636057384E+01  0.13125095802E+03  0.79914078812E+02 0.  0.
      -11    1    3    3    0    0 -0.96289163279E+02 -0.60297612379E+02 -0.17733165228E+01  0.11362459978E+03  0.00000000000E+00 0.  1.
       12    1    3    3    0    0  0.15608655690E+02 -0.49934475293E+01 -0.64902892156E+01  0.17626358240E+02  0.00000000000E+00 0. -1.
        2    1    1    2  501    0 -0.29787822315E+02 -0.31107836320E+02  0.27056164217E+02  0.50863030394E+02  0.00000000000E+00 0. -1.
        1    1    1    2  502    0  0.11046832990E+03  0.96398896228E+02 -0.93247749363E+02  0.17375598369E+03  0.00000000000E+00 0. -1.
</event>
<event>
 7   1  0.9172800E+00  0.8040000E+02  0.7957747E-01  0.1297830E+00
        2   -1    0    0  502    0  0.00000000000E+00  0.00000000000E+00  0.18794543938E+04  0.18794543938E+04  0.00000000000E+00 0. -1.
       21   -1    0    0  503  502  0.00000000000E+00  0.00000000000E+00 -0.38891354162E+01  0.38891354162E+01  0.00000000000E+00 0. -1.
       24    2    1    2    0    0  0.35245147284E+02  0.36603625864E+02  0.92937888014E+03  0.93397528405E+03  0.77347802284E+02 0.  0.
      -11    1    3    3    0    0 -0.13285561988E+02 -0.15500180098E+02  0.15710852320E+03  0.15842932116E+03  0.00000000000E+00 0.  1.
       12    1    3    3    0    0  0.48530709272E+02  0.52103805962E+02  0.77227035695E+03  0.77554596289E+03  0.00000000000E+00 0. -1.
       21    1    1    2  503  501  0.14901499233E+02 -0.79586670020E+01  0.34529608314E+03  0.34570909750E+03  0.00000000000E+00 0.  1.
        1    1    1    2  501    0 -0.50146646517E+02 -0.28644958862E+02  0.60089029513E+03  0.60365914771E+03  0.00000000000E+00 0. -1.
</event>
<event>
 7   1  0.9172800E+00  0.8040000E+02  0.7957747E-01  0.1297830E+00
       -1   -1    0    0    0  501  0.00000000000E+00  0.00000000000E+00  0.12039173024E+03  0.12039173024E+03  0.00000000000E+00 0.  1.
       21   -1    0    0  501  502  0.00000000000E+00  0.00000000000E+00 -0.42433279140E+02  0.42433279140E+02  0.00000000000E+00 0. -1.
       24    2    1    2    0    0  0.11572584089E+02  0.13741873440E+01  0.62187881928E+02  0.10353717184E+03  0.81956087023E+02 0.  0.
      -11    1    3    3    0    0 -0.12984984966E+02  0.12787292389E+02  0.72352373122E+02  0.74612268278E+02  0.00000000000E+00 0.  1.
       12    1    3    3    0    0  0.24557569056E+02 -0.11413105045E+02 -0.10164491194E+02  0.28924903559E+02  0.00000000000E+00 0. -1.
       21    1    1    2  503  502  0.17122087246E+02  0.60947260287E+01 -0.93389906099E+01  0.20433509308E+02  0.00000000000E+00 0. -1.
       -2    1    1    2    0  503 -0.28694671335E+02 -0.74689133727E+01  0.25109559778E+02  0.38854328230E+02  0.00000000000E+00 0.  1.
</event>
<event>
 7   1  0.9172800E+00  0.8040000E+02  0.7957747E-01  0.1297830E+00
        4   -1    0    0  503    0  0.00000000000E+00  0.00000000000E+00  0.51321305125E+02  0.51321305125E+02  0.00000000000E+00 0. -1.
       21   -1    0    0  501  502  0.00000000000E+00  0.00000000000E+00 -0.13728383860E+03  0.13728383860E+03  0.00000000000E+00 0.  1.
       24    2    1    2    0    0 -0.26338317439E+01  0.52960929035E+01 -0.44392084024E+02  0.91590620698E+02  0.79894924784E+02 0.  0.
      -11    1    3    3    0    0 -0.26943211867E+02 -0.23835110503E+02 -0.39350865333E+02  0.53315473934E+02  0.00000000000E+00 0.  1.
       12    1    3    3    0    0  0.24309380123E+02  0.29131203407E+02 -0.50412186910E+01  0.38275146764E+02  0.00000000000E+00 0. -1.
       21    1    1    2  503  502  0.85937807696E+01 -0.25773397177E+02 -0.61869267675E+02  0.67571646070E+02  0.00000000000E+00 0.  1.
        3    1    1    2  501    0 -0.59599490257E+01  0.20477304274E+02  0.20298818219E+02  0.29442876962E+02  0.00000000000E+00 0. -1.
</event>
<event>
 7   2  0.9172800E+00  0.8040000E+02  0.7957747E-01  0.1297830E+00
       21   -1    0    0  501  502  0.00000000000E+00  0.00000000000E+00  0.11678716687E+03  0.11678716687E+03  0.00000000000E+00 0. -1.
        1   -1    0    0  503    0  0.00000000000E+00  0.00000000000E+00 -0.47453397604E+03  0.47453397604E+03  0.00000000000E+00 0. -1.
      -24    2    1    2    0    0 -0.27218146923E+02  0.17349861205E+02 -0.15435560072E+03  0.17454215129E+03  0.74816214139E+02 0.  0.
       11    1    3    3    0    0  0.31427301593E+01 -0.29851259436E+01 -0.13122154980E+03  0.13129311810E+03  0.00000000000E+00 0. -1.
      -12    1    3    3    0    0 -0.30360877082E+02  0.20334987148E+02 -0.23134050917E+02  0.43249033184E+02  0.00000000000E+00 0.  1.
       21    1    1    2  503  502  0.25119685175E+02  0.73616688073E+01 -0.30808136099E+03  0.30919139338E+03  0.00000000000E+00 0. -1.
        2    1    1    2  501    0  0.20984617478E+01 -0.24711530012E+02  0.10469015254E+03  0.10758759825E+03  0.00000000000E+00 0. -1.
</event>
<event>
 7   2  0.9172800E+00  0.8040000E+02  0.7957747E-01  0.1297830E+00
        1   -1    0    0  503    0  0.00000000000E+00  0.00000000000E+00  0.38662940048E+02  0.38662940048E+02  0.00000000000E+00 0. -1.
       21   -1    0    0  501  502  0.00000000000E+00  0.00000000000E+00 -0.12471427930E+03  0.12471427930E+03  0.00000000000E+00 0.  1.
      -24    2    1    2    0    0 -0.14079965796E+02 -0.21982944471E+02 -0.57782172056E+02  0.10623294726E+03  0.85235933683E+02 0.  0.
       11    1    3    3    0    0 -0.44741793464E+02 -0.25465463432E+00 -0.10722551620E+02  0.46009412565E+02  0.00000000000E+00 0. -1.
      -12    1    3    3    0    0  0.30661827668E+02 -0.21728289836E+02 -0.47059620436E+02  0.60223534691E+02  0.00000000000E+00 0.  1.
       21    1    1    2  503  502 -0.11765110357E+02 -0.43560413485E+01 -0.49176518438E+01  0.13475021988E+02  0.00000000000E+00 0.  1.
        2    1    1    2  501    0  0.25845076153E+02  0.26338985819E+02 -0.23351515353E+02  0.43669250104E+02  0.00000000000E+00 0. -1.
</event>
<event>
 7   2  0.9172800E+00  0.8040000E+02  0.7957747E-01  0.1297830E+00
        1   -1    0    0  503    0  0.00000000000E+00  0.00000000000E+00  0.66487824547E+01  0.66487824547E+01  0.00000000000E+00 0. -1.
       21   -1    0    0  501  502  0.00000000000E+00  0.00000000000E+00 -0.62574261711E+03  0.62574261711E+03  0.00000000000E+00 0. -1.
      -24    2    1    2    0    0 -0.43040245887E+01  0.37775985739E+01 -0.29640898692E+03  0.30715041720E+03  0.80313737185E+02 0.  0.
       11    1    3    3    0    0 -0.51195978520E+01  0.17752318353E+02 -0.11215283186E+02  0.21613367762E+02  0.00000000000E+00 0. -1.
      -12    1    3    3    0    0  0.81557326330E+00 -0.13974719779E+02 -0.28519370373E+03  0.28553704944E+03  0.00000000000E+00 0.  1.
       21    1    1    2  503  502 -0.43363591922E+01  0.15220266901E+02 -0.73544859562E+02  0.75228365020E+02  0.00000000000E+00 0.  1.
        2    1    1    2  501    0  0.86403837809E+01 -0.18997865475E+02 -0.24913998817E+03  0.25001261734E+03  0.00000000000E+00 0. -1.
</event>
<event>
 7   1  0.9172800E+00  0.8040000E+02  0.7957747E-01  0.1297830E+00
       21   -1    0    0  503  502  0.00000000000E+00  0.00000000000E+00  0.85624613453E+02  0.85624613453E+02  0.00000000000E+00 0. -1.
       21   -1    0    0  501  503  0.00000000000E+00  0.00000000000E+00 -0.89447079066E+02  0.89447079066E+02  0.00000000000E+00 0. -1.
       24    2    1    2    0    0 -0.17298645113E+02 -0.50058476452E+01  0.22108873157E+02  0.85445279832E+02  0.80546830726E+02 0.  0.
      -11    1    3    3    0    0  0.47902504728E+01 -0.77659374810E+01 -0.28624175730E+02  0.30043297436E+02  0.00000000000E+00 0.  1.
       12    1    3    3    0    0 -0.22088895586E+02  0.27600898358E+01  0.50733048887E+02  0.55401982397E+02  0.00000000000E+00 0. -1.
        1    1    1    2  501    0  0.20432961303E+02  0.34340981100E+02 -0.40350769235E+02  0.56789025950E+02  0.00000000000E+00 0. -1.
       -2    1    1    2    0  502 -0.31343161893E+01 -0.29335133455E+02  0.14419430465E+02  0.32837386737E+02  0.00000000000E+00 0.  1.
</event>
<event>
 7   1  0.9172800E+00  0.8040000E+02  0.7957747E-01  0.1297830E+00
       21   -1    0    0  501  502  0.00000000000E+00  0.00000000000E+00  0.33625822749E+02  0.33625822749E+02  0.00000000000E+00 0. -1.
        2   -1    0    0  503    0  0.00000000000E+00  0.00000000000E+00 -0.63929083189E+03  0.63929083189E+03  0.00000000000E+00 0. -1.
       24    2    1    2    0    0  0.13840985824E+01 -0.25517960557E+02 -0.12655144777E+03  0.15368434203E+03  0.83369814752E+02 0.  0.
      -11    1    3    3    0    0  0.42053599209E+02 -0.75057100697E+01 -0.62315868489E+02  0.75552024167E+02  0.00000000000E+00 0.  1.
       12    1    3    3    0    0 -0.40669500626E+02 -0.18012250487E+02 -0.64235579281E+02  0.78132317861E+02  0.00000000000E+00 0. -1.
       21    1    1    2  503  502  0.75420849100E+02 -0.28540134286E+02 -0.35238346603E+03  0.36149267057E+03  0.00000000000E+00 0. -1.
        1    1    1    2  501    0 -0.76804947682E+02  0.54058094842E+02 -0.12673009534E+03  0.15773964204E+03  0.00000000000E+00 0. -1.
</event>
<event>
 7   1  0.9172800E+00  0.8040000E+02  0.7957747E-01  0.1297830E+00
       21   -1    0    0  501  502  0.00000000000E+00  0.00000000000E+00  0.95792786741E+01  0.95792786741E+01  0.00000000000E+00 0. -1.
        2   -1    0    0  503    0  0.00000000000E+00  0.00000000000E+00 -0.13719683145E+04  0.13719683145E+04  0.00000000000E+00 0. -1.
       24    2    1    2    0    0 -0.18455197787E+02 -0.89728417822E+02 -0.88128848598E+03  0.88968027079E+03  0.80435100686E+02 0.  0.
      -11    1    3    3    0    0 -0.49476658530E+01  0.13188957208E+02 -0.50342511912E+02  0.52276156087E+02  0.00000000000E+00 0.  1.
       12    1    3    3    0    0 -0.13507531934E+02 -0.10291737503E+03 -0.83094597407E+03  0.83740411471E+03  0.00000000000E+00 0. -1.
       21    1    1    2  503  502 -0.10379235224E+02  0.66121000209E+01 -0.99429777067E+02  0.10018846719E+03  0.00000000000E+00 0.  1.
        1    1    1    2  501    0  0.28834433012E+02  0.83116317801E+02 -0.38167077280E+03  0.39167885522E+03  0.00000000000E+00 0. -1.
</event>
<event>
 7   1  0.9172800E+00  0.8040000E+02  0.7957747E-01  0.1297830E+00
        2   -1    0    0  503    0  0.00000000000E+00  0.00000000000E+00  0.10761112748E+04  0.10761112748E+04  0.00000000000E+00 0. -1.
       21   -1    0    0  501  502  0.00000000000E+00  0.00000000000E+00 -0.73070391989E+01  0.73070391989E+01  0.00000000000E+00 0.  1.
       24    2    1    2    0    0 -0.24269912630E+02  0.16231410797E+02  0.73236163855E+03  0.73732665248E+03  0.80277864193E+02 0.  0.
      -11    1    3    3    0    0  0.12711585429E+02  0.19201079546E+02  0.65430315427E+02  0.69364198523E+02  0.00000000000E+00 0.  1.
       12    1    3    3    0    0 -0.36981498059E+02 -0.29696687491E+01  0.66693132312E+03  0.66796245396E+03  0.00000000000E+00 0. -1.
       21    1    1    2  503  502  0.28797393194E+02  0.15929516778E+02  0.66451834104E+02  0.74154471311E+02  0.00000000000E+00 0.  1.
        1    1    1    2  501    0 -0.45274805635E+01 -0.32160927575E+02  0.26999076294E+03  0.27193719020E+03  0.00000000000E+00 0. -1.
</event>
<event>
 7   2  0.9172800E+00  0.8040000E+02  0.7957747E-01  0.1297830E+00
        1   -1    0    0  502    0  0.00000000000E+00  0.00000000000E+00  0.20412321737E+03  0.20412321737E+03  0.00000000000E+00 0. -1.
       21   -1    0    0  503  502  0.00000000000E+00  0.00000000000E+00 -0.27279292888E+02  0.27279292888E+02  0.00000000000E+00 0. -1.
      -24    2    1    2    0    0  0.21040689776E+02 -0.29362185266E+02  0.95231437517E+02  0.12876787859E+03  0.78786365031E+02 0.  0.
       11    1    3    3    0    0  0.50958153324E+01 -0.55492977627E+02  0.66770663152E+02  0.86969876150E+02  0.00000000000E+00 0. -1.
      -12    1    3    3    0    0  0.15944874444E+02  0.26130792361E+02  0.28460774365E+02  0.41798002439E+02  0.00000000000E+00 0.  1.
       21    1    1    2  503  501 -0.29875194597E+02 -0.16752770177E+01  0.41177247365E+02  0.50900879224E+02  0.00000000000E+00 0. -1.
        2    1    1    2  501    0  0.88345048203E+01  0.31037462284E+02  0.40435239595E+02  0.51733752440E+02  0.00000000000E+00 0. -1.
</event>
<event>
 7   1  0.9172800E+00  0.8040000E+02  0.7957747E-01  0.1297830E+00
        2   -1    0    0  501    0  0.00000000000E+00  0.00000000000E+00  0.24276064815E+03  0.24276064815E+03  0.00000000000E+00 0. -1.
        1   -1    0    0  502    0  0.00000000000E+00  0.00000000000E+00 -0.28690770761E+03  0.28690770761E+03  0.00000000000E+00 0. -1.
       24    2    1    2    0    0 -0.25729744149E+02  0.12468870076E+02  0.21294714071E+03  0.22883852336E+03  0.78759714208E+02 0.  0.
      -11    1    3    3    0    0 -0.62077365792E+01  0.43173795383E+02  0.14912589388E+03  0.15537388721E+03  0.00000000000E+00 0.  1.
       12    1    3    3    0    0 -0.19522007570E+02 -0.30704925308E+02  0.63821246829E+02  0.73464636149E+02  0.00000000000E+00 0. -1.
        1    1    1    2  501    0  0.51500134413E+01  0.19252998615E+02 -0.26194958215E+03  0.26270665043E+03  0.00000000000E+00 0. -1.
        1    1    1    2  502    0  0.20579730708E+02 -0.31721868691E+02  0.48553819805E+01  0.38123181968E+02  0.00000000000E+00 0. -1.
</event>
<event>
 7   1  0.9172800E+00  0.8040000E+02  0.7957747E-01  0.1297830E+00
       21   -1    0    0  501  502  0.00000000000E+00  0.00000000000E+00  0.27640892619E+03  0.27640892619E+03  0.00000000000E+00 0. -1.
       21   -1    0    0  502  503  0.00000000000E+00  0.00000000000E+00 -0.59659011029E+02  0.59659011029E+02  0.00000000000E+00 0.  1.
       24    2    1    2    0    0  0.25212332827E+02  0.39640182724E+02  0.19230485313E+03  0.21417915706E+03  0.81759091049E+02 0.  0.
      -11    1    3    3    0    0  0.85773055986E+01 -0.20253149555E+02  0.10330732051E+03  0.10562273765E+03  0.00000000000E+00 0.  1.
       12    1    3    3    0    0  0.16635027228E+02  0.59893332280E+02  0.88997532620E+02  0.10855641941E+03  0.00000000000E+00 0. -1.
        1    1    1    2  501    0 -0.29506361182E+01 -0.21296327218E+02  0.67063808148E+02  0.70425806135E+02  0.00000000000E+00 0. -1.
       -2    1    1    2    0  503 -0.22261696709E+02 -0.18343855507E+02 -0.42618746114E+02  0.51462974026E+02  0.00000000000E+00 0.  1.
</event>
<event>
 7   2  0.9172800E+00  0.8040000E+02  0.7957747E-01  0.1297830E+00
        3   -1    0    0  503    0  0.00000000000E+00  0.00000000000E+00  0.16530133851E+02  0.16530133851E+02  0.00000000000E+00 0. -1.
       -4   -1    0    0    0  501  0.00000000000E+00  0.00000000000E+00 -0.34880430836E+03  0.34880430836E+03  0.00000000000E+00 0.  1.
      -24    2    1    2    0    0 -0.32088858292E+02  0.24733713039E+02 -0.26495665159E+03  0.27950407558E+03  0.79240454684E+02 0.  0.
       11    1    3    3    0    0 -0.23985507010E+02  0.18017605331E+02 -0.24269388031E+02  0.38586809194E+02  0.00000000000E+00 0. -1.
      -12    1    3    3    0    0 -0.81033512821E+01  0.67161077085E+01 -0.24068726355E+03  0.24091726638E+03  0.00000000000E+00 0.  1.
       21    1    1    2  502  501  0.27688214895E+02  0.15629669258E-01 -0.40637302954E+02  0.49173446897E+02  0.00000000000E+00 0. -1.
       21    1    1    2  503  502  0.44006433967E+01 -0.24749342709E+02 -0.26680219968E+02  0.36656919734E+02  0.00000000000E+00 0. -1.
</event>
<event>
 7   2  0.9172800E+00  0.8040000E+02  0.7957747E-01  0.1297830E+00
       -2   -1    0    0    0  501  0.00000000000E+00  0.00000000000E+00  0.25746766983E+03  0.25746766983E+03  0.00000000000E+00 0.  1.
       21   -1    0    0  503  502  0.00000000000E+00  0.00000000000E+00 -0.27762047869E+02  0.27762047869E+02  0.00000000000E+00 0.  1.
      -24    2    1    2    0    0 -0.39667650508E+02  0.30876255021E+02  0.13694509198E+03  0.16696069830E+03  0.81209918956E+02 0.  0.
       11    1    3    3    0    0 -0.58742969062E+02  0.43074879931E+02  0.10600855817E+03  0.12862346637E+03  0.00000000000E+00 0. -1.
      -12    1    3    3    0    0  0.19075318554E+02 -0.12198624910E+02  0.30936533810E+02  0.38337231927E+02  0.00000000000E+00 0.  1.
       21    1    1    2  503  501  0.31919764687E+02 -0.51542198673E+01  0.84008128222E+02  0.90015570695E+02  0.00000000000E+00 0.  1.
       -1    1    1    2    0  502  0.77478858210E+01 -0.25722035154E+02  0.87524017519E+01  0.28253448703E+02  0.00000000000E+00 0.  1.
</event>
<event>
 7   1  0.9172800E+00  0.8040000E+02  0.7957747E-01  0.1297830E+00
        2   -1    0    0  502    0  0.00000000000E+00  0.00000000000E+00  0.47697458816E+03  0.47697458816E+03  0.00000000000E+00 0. -1.
       21   -1    0    0  503  502  0.00000000000E+00  0.00000000000E+00 -0.66521315600E+02  0.66521315600E+02  0.00000000000E+00 0. -1.
       24    2    1    2    0    0  0.20474509748E+02  0.17856957383E+02  0.35505446428E+03  0.36582292944E+03  0.83813284306E+02 0.  0.
      -11    1    3    3    0    0 -0.79997547760E+01  0.35564142330E+02  0.71143382250E+02  0.79938633552E+02  0.00000000000E+00 0.  1.
       12    1    3    3    0    0  0.28474264524E+02 -0.17707184948E+02  0.28391108203E+03  0.28588429589E+03  0.00000000000E+00 0. -1.
       21    1    1    2  503  501  0.19229735701E+02 -0.47047960780E+02 -0.43679015362E+02  0.67016040853E+02  0.00000000000E+00 0. -1.
        1    1    1    2  501    0 -0.39704245448E+02  0.29191003397E+02  0.99077823650E+02  0.11065693347E+03  0.00000000000E+00 0. -1.
</event>
<event>
 7   1  0.9172800E+00  0.8040000E+02  0.7957747E-01  0.1297830E+00
       21   -1    0    0  503  502  0.00000000000E+00  0.00000000000E+00  0.32794221840E+02  0.32794221840E+02  0.00000000000E+00 0.  1.
        2   -1    0    0  502    0  0.00000000000E+00  0.00000000000E+00 -0.12866944810E+04  0.12866944810E+04  0.00000000000E+00 0. -1.
       24    2    1    2    0    0  0.52892701367E+02  0.20608929431E+02 -0.10894548070E+04  0.10939524918E+04  0.81227532348E+02 0.  0.
      -11    1    3    3    0    0  0.44582116901E+02 -0.25763151904E+02 -0.51410091314E+03  0.51667306301E+03  0.00000000000E+00 0.  1.
       12    1    3    3    0    0  0.83105844660E+01  0.46372081336E+02 -0.57535389386E+03  0.57727942880E+03  0.00000000000E+00 0. -1.
       21    1    1    2  503  501 -0.18279626657E+02  0.59790555101E+01  0.24765541679E+02  0.31356433314E+02  0.00000000000E+00 0.  1.
        1    1    1    2  501    0 -0.34613074709E+02 -0.26587984941E+02 -0.18921099384E+03  0.19417977772E+03  0.00000000000E+00 0. -1.
</event>
<event>
 7   2  0.9172800E+00  0.8040000E+02  0.7957747E-01  0.1297830E+00
       21   -1    0    0  501  502  0.00000000000E+00  0.00000000000E+00  0.11928418604E+03  0.11928418604E+03  0.00000000000E+00 0. -1.
       21   -1    0    0  502  503  0.00000000000E+00  0.00000000000E+00 -0.13696382384E+03  0.13696382384E+03  0.00000000000E+00 0.  1.
      -24    2    1    2    0    0  0.68371854015E+02 -0.83736150851E+02 -0.31876115854E+02  0.13905125979E+03  0.81441467971E+02 0.  0.
       11    1    3    3    0    0  0.69923912911E+02 -0.90799940560E+02 -0.88827713853E+01  0.11494732024E+03  0.00000000000E+00 0. -1.
      -12    1    3    3    0    0 -0.15520588961E+01  0.70637897090E+01 -0.22993344468E+02  0.24103939547E+02  0.00000000000E+00 0.  1.
        2    1    1    2  501    0 -0.28902514860E+02  0.37930035379E+02 -0.15083177175E+02  0.50015449441E+02  0.00000000000E+00 0. -1.
       -1    1    1    2    0  503 -0.39469339154E+02  0.45806115472E+02  0.29279655223E+02  0.67181300657E+02  0.00000000000E+00 0.  1.
</event>
<event>
 7   2  0.9172800E+00  0.8040000E+02  0.7957747E-01  0.1297830E+00
        1   -1    0    0  501    0  0.00000000000E+00  0.00000000000E+00  0.12657641873E+04  0.12657641873E+04  0.00000000000E+00 0. -1.
       -2   -1    0    0    0  501  0.00000000000E+00  0.00000000000E+00 -0.11848026162E+03  0.11848026162E+03  0.00000000000E+00 0. -1.
      -24    2    1    2    0    0  0.24947796307E+02 -0.15160955523E+02  0.25479229063E+03  0.26879132843E+03  0.80482418954E+02 0.  0.
       11    1    3    3    0    0 -0.76656796241E-01 -0.73862707272E+01 -0.41862491792E+01  0.84904389586E+01  0.00000000000E+00 0. -1.
      -12    1    3    3    0    0  0.25024453104E+02 -0.77746847962E+01  0.25897853981E+03  0.26030088947E+03  0.00000000000E+00 0.  1.
        2    1    1    2  502    0 -0.47340586476E+02  0.52862466881E+01  0.10020565787E+04  0.10031881491E+04  0.00000000000E+00 0. -1.
       -2    1    1    2    0  502  0.22392790169E+02  0.98747088353E+01 -0.10956494366E+03  0.11226497141E+03  0.00000000000E+00 0. -1.
</event>
<event>
 7   2  0.9172800E+00  0.8040000E+02  0.7957747E-01  0.1297830E+00
       21   -1    0    0  503  502  0.00000000000E+00  0.00000000000E+00  0.78565405413E+01  0.78565405413E+01  0.00000000000E+00 0.  1.
        1   -1    0    0  502    0  0.00000000000E+00  0.00000000000E+00 -0.94777637772E+03  0.94777637772E+03  0.00000000000E+00 0. -1.
      -24    2    1    2    0    0  0.24958009049E+02 -0.16957354218E+02 -0.75166068183E+03  0.75655102735E+03  0.80406606060E+02 0.  0.
       11    1    3    3    0    0 -0.13057045152E+02 -0.63551057697E+01 -0.58871588947E+03  0.58889495864E+03  0.00000000000E+00 0. -1.
      -12    1    3    3    0    0  0.38015054201E+02 -0.10602248448E+02 -0.16294479235E+03  0.16765606870E+03  0.00000000000E+00 0.  1.
       21    1    1    2  503  501 -0.13802218108E+02 -0.15234554017E+02 -0.25297674280E+02  0.32597011900E+02  0.00000000000E+00 0.  1.
        2    1    1    2  501    0 -0.11155790941E+02  0.32191908235E+02 -0.16296148107E+03  0.16648487901E+03  0.00000000000E+00 0. -1.
</event>
<event>
 7   1  0.9172800E+00  0.8040000E+02  0.7957747E-01  0.1297830E+00
       21   -1    0    0  501  502  0.00000000000E+00  0.00000000000E+00  0.25941361716E+02  0.25941361716E+02  0.00000000000E+00 0.  1.
        2   -1    0    0  503    0  0.00000000000E+00  0.00000000000E+00 -0.21499253654E+03  0.21499253654E+03  0.00000000000E+00 0. -1.
       24    2    1    2    0    0 -0.25456308157E+02 -0.37500397813E+01 -0.11055455632E+03  0.13889897379E+03  0.80053285839E+02 0.  0.
      -11    1    3    3    0    0 -0.31321692633E+02  0.28766130738E+02 -0.30615990705E+02  0.52401122067E+02  0.00000000000E+00 0.  1.
       12    1    3    3    0    0  0.58653844758E+01 -0.32516170519E+02 -0.79938565612E+02  0.86497851721E+02  0.00000000000E+00 0. -1.
       21    1    1    2  503  502 -0.13220303993E+02  0.19155899611E+02 -0.23706893993E+02  0.33222609024E+02  0.00000000000E+00 0. -1.
        1    1    1    2  501    0  0.38676612150E+02 -0.15405859829E+02 -0.54789724513E+02  0.68812315443E+02  0.00000000000E+00 0. -1.
</event>
<event>
 7   1  0.9172800E+00  0.8040000E+02  0.7957747E-01  0.1297830E+00
       -2   -1    0    0    0  501  0.00000000000E+00  0.00000000000E+00  0.45030360515E+02  0.45030360515E+02  0.00000000000E+00 0. -1.
        2   -1    0    0  501    0  0.00000000000E+00  0.00000000000E+00 -0.34166845236E+03  0.34166845236E+03  0.00000000000E+00 0. -1.
       24    2    1    2    0    0 -0.77928859990E+00 -0.43922339379E+02 -0.22422782375E+03  0.24245004890E+03  0.81081009381E+02 0.  0.
      -11    1    3    3    0    0  0.50849175685E+01  0.22322244992E+02 -0.86923464956E+02  0.89887862185E+02  0.00000000000E+00 0.  1.
       12    1    3    3    0    0 -0.58642061684E+01 -0.66244584371E+02 -0.13730435879E+03  0.15256218672E+03  0.00000000000E+00 0. -1.
        1    1    1    2  502    0  0.49555017400E+02  0.17283507341E+02 -0.71463258285E+02  0.88664630266E+02  0.00000000000E+00 0. -1.
       -2    1    1    2    0  502 -0.48775728800E+02  0.26638832038E+02 -0.94700981114E+00  0.55584133707E+02  0.00000000000E+00 0. -1.
</event>
<event>
 7   1  0.9172800E+00  0.8040000E+02  0.7957747E-01  0.1297830E+00
        2   -1    0    0  503    0  0.00000000000E+00  0.00000000000E+00  0.10296063555E+04  0.10296063555E+04  0.00000000000E+00 0. -1.
       21   -1    0    0  501  502  0.00000000000E+00  0.00000000000E+00 -0.36676383542E+01  0.36676383542E+01  0.00000000000E+00 0.  1.
       24    2    1    2    0    0  0.15700269608E+02  0.97057647997E+01  0.62214603530E+03  0.62765121191E+03  0.80868128645E+02 0.  0.
      -11    1    3    3    0    0  0.46909844741E+02 -0.66373059961E+01  0.38456562406E+03  0.38747297528E+03  0.00000000000E+00 0.  1.
       12    1    3    3    0    0 -0.31209575132E+02  0.16343070796E+02  0.23758041124E+03  0.24017823662E+03  0.00000000000E+00 0. -1.
       21    1    1    2  503  502  0.37946996641E+01 -0.16886130628E+02  0.21313129465E+03  0.21383285509E+03  0.00000000000E+00 0.  1.
        1    1    1    2  501    0 -0.19494969273E+02  0.71803658283E+01  0.19066138721E+03  0.19178992688E+03  0.00000000000E+00 0. -1.
</event>
<event>
 7   1  0.9172800E+00  0.8040000E+02  0.7957747E-01  0.1297830E+00
        2   -1    0    0  503    0  0.00000000000E+00  0.00000000000E+00  0.16930519895E+04  0.16930519895E+04  0.00000000000E+00 0. -1.
       21   -1    0    0  501  502  0.00000000000E+00  0.00000000000E+00 -0.67284036233E+01  0.67284036233E+01  0.00000000000E+00 0.  1.
       24    2    1    2    0    0  0.49226269103E+01  0.56888881825E+01  0.24811675297E+03  0.26084539415E+03  0.80136139388E+02 0.  0.
      -11    1    3    3    0    0  0.17114421796E+02  0.11582245256E+02  0.11129611104E+02  0.23471686815E+02  0.00000000000E+00 0.  1.
       12    1    3    3    0    0 -0.12191794886E+02 -0.58933570736E+01  0.23698714187E+03  0.23737370733E+03  0.00000000000E+00 0. -1.
       21    1    1    2  503  502 -0.20770877280E+02  0.91834693603E+01  0.56203189465E+03  0.56249054753E+03  0.00000000000E+00 0.  1.
        1    1    1    2  501    0  0.15848250370E+02 -0.14872357543E+02  0.87617493826E+03  0.87644445146E+03  0.00000000000E+00 0. -1.
</event>
<event>
 7   2  0.9172800E+00  0.8040000E+02  0.7957747E-01  0.1297830E+00
       -2   -1    0    0    0  501  0.00000000000E+00  0.00000000000E+00  0.30159754008E+03  0.30159754008E+03  0.00000000000E+00 0.  1.
        1   -1    0    0  502    0  0.00000000000E+00  0.00000000000E+00 -0.24511895770E+02  0.24511895770E+02  0.00000000000E+00 0. -1.
      -24    2    1    2    0    0  0.12132453019E+02  0.98325064947E+00  0.82917615707E+02  0.11586171250E+03  0.80002763889E+02 0.  0.
       11    1    3    3    0    0  0.12242513529E+02  0.38913872197E+02  0.29482888745E+02  0.50332984371E+02  0.00000000000E+00 0. -1.
      -12    1    3    3    0    0 -0.11006050998E+00 -0.37930621548E+02  0.53434726961E+02  0.65528728125E+02  0.00000000000E+00 0.  1.
       21    1    1    2  502  503 -0.64580860064E+01  0.28883574093E+02  0.26127368671E+02  0.39479198585E+02  0.00000000000E+00 0. -1.
       21    1    1    2  503  501 -0.56743670123E+01 -0.29866824742E+02  0.16804065993E+03  0.17076852477E+03  0.00000000000E+00 0.  1.
</event>
<event>
 7   2  0.9172800E+00  0.8040000E+02  0.7957747E-01  0.1297830E+00
        1   -1    0    0  503    0  0.00000000000E+00  0.00000000000E+00  0.25727682811E+03  0.25727682811E+03  0.00000000000E+00 0. -1.
       21   -1    0    0  501  502  0.00000000000E+00  0.00000000000E+00 -0.46175061524E+03  0.46175061524E+03  0.00000000000E+00 0. -1.
      -24    2    1    2    0    0  0.17164368361E+03  0.64738224529E+02  0.15439862473E+03  0.25280783262E+03  0.80126606554E+02 0.  0.
       11    1    3    3    0    0  0.16903057839E+03  0.76371528162E+02  0.13275083328E+03  0.22809368795E+03  0.00000000000E+00 0. -1.
      -12    1    3    3    0    0  0.26131052147E+01 -0.11633303632E+02  0.21647791443E+02  0.24714144667E+02  0.00000000000E+00 0.  1.
       21    1    1    2  503  502 -0.38470962922E+02 -0.91468133386E+02 -0.20117578410E+02  0.10124796973E+03  0.00000000000E+00 0. -1.
        2    1    1    2  501    0 -0.13317272068E+03  0.26729908856E+02 -0.33875483345E+03  0.36497164101E+03  0.00000000000E+00 0. -1.
</event>
<event>
 7   1  0.9172800E+00  0.8040000E+02  0.7957747E-01  0.1297830E+00
        2   -1    0    0  502    0  0.00000000000E+00  0.00000000000E+00  0.19669252390E+03  0.19669252390E+03  0.00000000000E+00 0. -1.
        2   -1    0    0  501    0  0.00000000000E+00  0.00000000000E+00 -0.45703969149E+03  0.45703969149E+03  0.00000000000E+00 0. -1.
       24    2    1    2    0    0 -0.63930799482E+01  0.40759508693E+01 -0.44647320894E+03  0.45354695551E+03  0.79429400710E+02 0.  0.
      -11    1    3    3    0    0  0.33861718863E+02 -0.62821500323E+01 -0.27298286687E+03  0.27514673725E+03  0.00000000000E+00 0.  1.
       12    1    3    3    0    0 -0.40254798812E+02  0.10358100902E+02 -0.17349034207E+03  0.17840021826E+03  0.00000000000E+00 0. -1.
        2    1    1    2  501    0  0.17100045980E+02  0.24623750593E+01  0.18682331207E+03  0.18762042745E+03  0.00000000000E+00 0. -1.
        1    1    1    2  502    0 -0.10706966032E+02 -0.65383259286E+01 -0.69727071227E+00  0.12564832430E+02  0.00000000000E+00 0. -1.
</event>
<event>
 7   2  0.9172800E+00  0.8040000E+02  0.7957747E-01  0.1297830E+00
       21   -1    0    0  501  502  0.00000000000E+00  0.00000000000E+00  0.73901835770E+02  0.73901835770E+02  0.00000000000E+00 0. -1.
        1   -1    0    0  503    0  0.00000000000E+00  0.00000000000E+00 -0.41807433478E+03  0.41807433478E+03  0.00000000000E+00 0. -1.
      -24    2    1    2    0    0  0.11599936479E+03  0.17390617669E+02 -0.16052419554E+03  0.21476337750E+03  0.81221947452E+02 0.  0.
       11    1    3    3    0    0  0.87889581363E+02  0.17997964445E+02 -0.16349389062E+03  0.18649063651E+03  0.00000000000E+00 0. -1.
      -12    1    3    3    0    0  0.28109783425E+02 -0.60734677644E+00  0.29696950779E+01  0.28272740992E+02  0.00000000000E+00 0.  1.
       21    1    1    2  503  502  0.11300532742E+02 -0.17117650292E+02 -0.14170352542E+03  0.14318032374E+03  0.00000000000E+00 0. -1.
        2    1    1    2  501    0 -0.12729989753E+03 -0.27296737648E+00 -0.41944778055E+02  0.13403246931E+03  0.00000000000E+00 0. -1.
</event>
<event>
 7   2  0.9172800E+00  0.8040000E+02  0.7957747E-01  0.1297830E+00
       21   -1    0    0  503  502  0.00000000000E+00  0.00000000000E+00  0.17770326592E+02  0.17770326592E+02  0.00000000000E+00 0. -1.
       -2   -1    0    0    0  501  0.00000000000E+00  0.00000000000E+00 -0.34464723810E+03  0.34464723810E+03  0.00000000000E+00 0.  1.
      -24    2    1    2    0    0 -0.30039213754E+02 -0.21360120344E+02 -0.17926574996E+03  0.20025580779E+03  0.81286962924E+02 0.  0.
       11    1    3    3    0    0 -0.14663407653E+02  0.79938629866E-01  0.39210425224E+01  0.15178817103E+02  0.00000000000E+00 0. -1.
      -12    1    3    3    0    0 -0.15375806101E+02 -0.21440058974E+02 -0.18318679249E+03  0.18507699069E+03  0.00000000000E+00 0.  1.
       21    1    1    2  503  501  0.29672577312E+02 -0.84393325049E+01 -0.40081615446E+02  0.50578850068E+02  0.00000000000E+00 0. -1.
       -1    1    1    2    0  502  0.36663644249E+00  0.29799452849E+02 -0.10752954610E+03  0.11158290683E+03  0.00000000000E+00 0.  1.
</event>
<event>
 7   1  0.9172800E+00  0.8040000E+02  0.7957747E-01  0.1297830E+00
        2   -1    0    0  502    0  0.00000000000E+00  0.00000000000E+00  0.95402719957E+03  0.95402719957E+03  0.00000000000E+00 0. -1.
       21   -1    0    0  503  502  0.00000000000E+00  0.00000000000E+00 -0.57128613097E+01  0.57128613097E+01  0.00000000000E+00 0.  1.
       24    2    1    2    0    0 -0.11453156342E+01 -0.93020304362E+01  0.31842438432E+03  0.32852826864E+03  0.80305013860E+02 0.  0.
      -11    1    3    3    0    0 -0.18260891797E+02  0.31575256500E+02  0.15001715078E+03  0.15438783151E+03  0.00000000000E+00 0.  1.
       12    1    3    3    0    0  0.17115576162E+02 -0.40877286936E+02  0.16840723354E+03  0.17414043713E+03  0.00000000000E+00 0. -1.
       21    1    1    2  503  501  0.21880070375E+01 -0.15589776596E+02  0.27272927811E+03  0.27318324921E+03  0.00000000000E+00 0. -1.
        1    1    1    2  501    0 -0.10426914033E+01  0.24891807032E+02  0.35716067583E+03  0.35802854303E+03  0.00000000000E+00 0. -1.
</event>
<event>
 7   1  0.9172800E+00  0.8040000E+02  0.7957747E-01  0.1297830E+00
        2   -1    0    0  503    0  0.00000000000E+00  0.00000000000E+00  0.51540395692E+03  0.51540395692E+03  0.00000000000E+00 0. -1.
       21   -1    0    0  501  502  0.00000000000E+00  0.00000000000E+00 -0.12899999787E+02  0.12899999787E+02  0.00000000000E+00 0.  1.
       24    2    1    2    0    0  0.40846741094E+01  0.82202336579E+01  0.38644982951E+03  0.39450839011E+03  0.78798111245E+02 0.  0.
      -11    1    3    3    0    0 -0.67801366354E+01 -0.86954071216E+01  0.43079279844E+01  0.11838015092E+02  0.00000000000E+00 0.  1.
       12    1    3    3    0    0  0.10864810745E+02  0.16915640779E+02  0.38214190152E+03  0.38267037502E+03  0.00000000000E+00 0. -1.
       21    1    1    2  503  502 -0.67783420861E+01  0.28733114499E+02  0.50629568013E+02  0.58607942699E+02  0.00000000000E+00 0.  1.
        1    1    1    2  501    0  0.26936679767E+01 -0.36953348157E+02  0.65424559616E+02  0.75187623903E+02  0.00000000000E+00 0. -1.
</event>
<event>
 7   1  0.9172800E+00  0.8040000E+02  0.7957747E-01  0.1297830E+00
        2   -1    0    0  503    0  0.00000000000E+00  0.00000000000E+00  0.18512457846E+03  0.18512457846E+03  0.00000000000E+00 0. -1.
       21   -1    0    0  501  502  0.00000000000E+00  0.00000000000E+00 -0.17023115716E+03  0.17023115716E+03  0.00000000000E+00 0.  1.
       24    2    1    2    0    0 -0.17223372033E+02  0.37916416581E+01  0.14532773311E+03  0.16576256847E+03  0.77756401700E+02 0.  0.
      -11    1    3    3    0    0  0.79015542206E+01  0.36844443202E+02  0.78730060585E+02  0.87283274421E+02  0.00000000000E+00 0.  1.
       12    1    3    3    0    0 -0.25124926253E+02 -0.33052801544E+02  0.66597672521E+02  0.78479294048E+02  0.00000000000E+00 0. -1.
       21    1    1    2  503  502  0.43776910802E+01 -0.17400336339E+02 -0.15648901065E+03  0.15751427344E+03  0.00000000000E+00 0.  1.
        1    1    1    2  501    0  0.12845680952E+02  0.13608694681E+02  0.26054698838E+02  0.32078893709E+02  0.00000000000E+00 0. -1.
</event>
<event>
 7   1  0.9172800E+00  0.8040000E+02  0.7957747E-01  0.1297830E+00
       -1   -1    0    0    0  501  0.00000000000E+00  0.00000000000E+00  0.12489446083E+04  0.12489446083E+04  0.00000000000E+00 0.  1.
       21   -1    0    0  501  502  0.00000000000E+00  0.00000000000E+00 -0.15556147286E+02  0.15556147286E+02  0.00000000000E+00 0. -1.
       24    2    1    2    0    0 -0.56074394490E+02 -0.13508218033E+02  0.63734839281E+03  0.64508849840E+03  0.81236612932E+02 0.  0.
      -11    1    3    3    0    0 -0.61528062573E+02 -0.10132638715E+02  0.63530375311E+03  0.63835666486E+03  0.00000000000E+00 0.  1.
       12    1    3    3    0    0  0.54536680831E+01 -0.33755793185E+01  0.20446396918E+01  0.67318335367E+01  0.00000000000E+00 0. -1.
       21    1    1    2  503  502 -0.11218775745E+02  0.39744645513E+02  0.36155699485E+02  0.54888362896E+02  0.00000000000E+00 0. -1.
       -2    1    1    2    0  503  0.67293170235E+02 -0.26236427480E+02  0.55988436868E+03  0.56452389425E+03  0.00000000000E+00 0.  1.
</event>
<event>
 7   1  0.9172800E+00  0.8040000E+02  0.7957747E-01  0.1297830E+00
        2   -1    0    0  503    0  0.00000000000E+00  0.00000000000E+00  0.18201934290E+04  0.18201934290E+04  0.00000000000E+00 0. -1.
       21   -1    0    0  501  502  0.00000000000E+00  0.00000000000E+00 -0.19383507034E+02  0.19383507034E+02  0.00000000000E+00 0.  1.
       24    2    1    2    0    0  0.85892905470E+02  0.53470363494E+02  0.43926242373E+03  0.45780526156E+03  0.79984433678E+02 0.  0.
      -11    1    3    3    0    0  0.84873076707E+02  0.59480858056E+02  0.28228577553E+03  0.30071027699E+03  0.00000000000E+00 0.  1.
       12    1    3    3    0    0  0.10198287622E+01 -0.60104945613E+01  0.15697664820E+03  0.15709498456E+03  0.00000000000E+00 0. -1.
       21    1    1    2  503  502 -0.28309327865E+02 -0.15393525492E+02  0.18914160882E+02  0.37364744789E+02  0.00000000000E+00 0.  1.
        1    1    1    2  501    0 -0.57583577604E+02 -0.38076838002E+02  0.13426333373E+04  0.13444069297E+04  0.00000000000E+00 0. -1.
</event>
<event>
 7   1  0.9172800E+00  0.8040000E+02  0.7957747E-01  0.1297830E+00
       -1   -1    0    0    0  501  0.00000000000E+00  0.00000000000E+00  0.97602055815E+01  0.97602055815E+01  0.00000000000E+00 0.  1.
        2   -1    0    0  502    0  0.00000000000E+00  0.00000000000E+00 -0.37356818507E+03  0.37356818507E+03  0.00000000000E+00 0. -1.
       24    2    1    2    0    0  0.14671531797E+01 -0.60373913197E+01 -0.26661053578E+03  0.28112380607E+03  0.88942756414E+02 0.  0.
      -11    1    3    3    0    0  0.52235114607E+01 -0.19825703249E+02 -0.78262732333E+01  0.21945253109E+02  0.00000000000E+00 0.  1.
       12    1    3    3    0    0 -0.37563582810E+01  0.13788311930E+02 -0.25878426254E+03  0.25917855296E+03  0.00000000000E+00 0. -1.
       21    1    1    2  502  503 -0.73847746814E+01 -0.11112030653E+02 -0.45533876077E+02  0.47448350792E+02  0.00000000000E+00 0.  1.
       21    1    1    2  503  501  0.59176215017E+01  0.17149421973E+02 -0.51663567634E+02  0.54756233790E+02  0.00000000000E+00 0. -1.
</event>
<event>
 7   1  0.9172800E+00  0.8040000E+02  0.7957747E-01  0.1297830E+00
        2   -1    0    0  503    0  0.00000000000E+00  0.00000000000E+00  0.92563202225E+03  0.92563202225E+03  0.00000000000E+00 0. -1.
       21   -1    0    0  501  502  0.00000000000E+00  0.00000000000E+00 -0.12788442621E+02  0.12788442621E+02  0.00000000000E+00 0. -1.
       24    2    1    2    0    0 -0.84802293343E+00  0.40377610153E+02  0.71949610205E+03  0.72519638758E+03  0.81265547211E+02 0.  0.
      -11    1    3    3    0    0  0.24325326186E+02  0.53622470359E+02  0.38295620941E+03  0.38745651259E+03  0.00000000000E+00 0.  1.
       12    1    3    3    0    0 -0.25173349120E+02 -0.13244860206E+02  0.33653989263E+03  0.33773987499E+03  0.00000000000E+00 0. -1.
       21    1    1    2  503  502 -0.26263757744E+02 -0.91809420119E+01  0.15284241769E+03  0.15535404504E+03  0.00000000000E+00 0. -1.
        1    1    1    2  501    0  0.27111780677E+02 -0.31196668141E+02  0.40505059901E+02  0.57870032246E+02  0.00000000000E+00 0. -1.
</event>
<event>
 7   1  0.9172800E+00  0.8040000E+02  0.7957747E-01  0.1297830E+00
       21   -1    0    0  501  502  0.00000000000E+00  0.00000000000E+00  0.74300824439E+01  0.74300824439E+01  0.00000000000E+00 0.  1.
        2   -1    0    0  503    0  0.00000000000E+00  0.00000000000E+00 -0.14607175514E+04  0.14607175514E+04  0.00000000000E+00 0. -1.
       24    2    1    2    0    0  0.32040064084E+02 -0.30015733084E+02 -0.85206774755E+03  0.85704761824E+03  0.81139777988E+02 0.  0.
      -11    1    3    3    0    0 -0.15823963416E+01 -0.51824025670E+02 -0.51622870122E+03  0.51882589139E+03  0.00000000000E+00 0.  1.
       12    1    3    3    0    0  0.33622460426E+02  0.21808292586E+02 -0.33583904634E+03  0.33822172685E+03  0.00000000000E+00 0. -1.
       21    1    1    2  503  502 -0.17851177350E+02  0.22893872235E+02 -0.59205973687E+03  0.59277105694E+03  0.00000000000E+00 0.  1.
        1    1    1    2  501    0 -0.14188886735E+02  0.71218608489E+01 -0.91599845075E+01  0.18328958642E+02  0.00000000000E+00 0. -1.
</event>
<event>
 7   2  0.9172800E+00  0.8040000E+02  0.7957747E-01  0.1297830E+00
        2   -1    0    0  502    0  0.00000000000E+00  0.00000000000E+00  0.89013050752E+03  0.89013050752E+03  0.00000000000E+00 0. -1.
        1   -1    0    0  501    0  0.00000000000E+00  0.00000000000E+00 -0.14495465841E+03  0.14495465841E+03  0.00000000000E+00 0. -1.
      -24    2    1    2    0    0  0.17831914087E+01  0.43824435665E+02 -0.10022172764E+03  0.13581202874E+03  0.80478267415E+02 0.  0.
       11    1    3    3    0    0 -0.35917120609E+02  0.21646668816E+02 -0.73308235685E+02  0.84455403870E+02  0.00000000000E+00 0. -1.
      -12    1    3    3    0    0  0.37700312018E+02  0.22177766848E+02 -0.26913491951E+02  0.51356624866E+02  0.00000000000E+00 0.  1.
        2    1    1    2  501    0 -0.12263225112E+02 -0.24492630110E+02  0.86759526345E+03  0.86802754379E+03  0.00000000000E+00 0. -1.
        2    1    1    2  502    0  0.10480033703E+02 -0.19331805554E+02 -0.22197686704E+02  0.31245593408E+02  0.00000000000E+00 0. -1.
</event>
<event>
 7   2  0.9172800E+00  0.8040000E+02  0.7957747E-01  0.1297830E+00
       -2   -1    0    0    0  501  0.00000000000E+00  0.00000000000E+00  0.28108736406E+03  0.28108736406E+03  0.00000000000E+00 0.  1.
       21   -1    0    0  501  502  0.00000000000E+00  0.00000000000E+00 -0.79678948694E+02  0.79678948694E+02  0.00000000000E+00 0.  1.
      -24    2    1    2    0    0 -0.48950925469E+02  0.10175276075E+02 -0.37488833344E+02  0.10656121796E+03  0.86314258377E+02 0.  0.
       11    1    3    3    0    0  0.93296001238E+01  0.22957157998E+02 -0.39762506704E+02  0.46852208925E+02  0.00000000000E+00 0. -1.
      -12    1    3    3    0    0 -0.58280525592E+02 -0.12781881923E+02  0.22736733594E+01  0.59709009030E+02  0.00000000000E+00 0.  1.
       21    1    1    2  503  502  0.13234292418E+02  0.16068105701E+02  0.14248605335E+02  0.25226043499E+02  0.00000000000E+00 0.  1.
       -1    1    1    2    0  503  0.35716633050E+02 -0.26243381776E+02  0.22464864337E+03  0.22897905130E+03  0.00000000000E+00 0.  1.
</event>
<event>
 7   2  0.9172800E+00  0.8040000E+02  0.7957747E-01  0.1297830E+00
        1   -1    0    0  501    0  0.00000000000E+00  0.00000000000E+00  0.13522404275E+04  0.13522404275E+04  0.00000000000E+00 0. -1.
        4   -1    0    0  502    0  0.00000000000E+00  0.00000000000E+00 -0.26823723645E+02  0.26823723645E+02  0.00000000000E+00 0.  1.
      -24    2    1    2    0    0 -0.63011123039E+02  0.15019804318E+02  0.97204215494E+03  0.97754835951E+03  0.80863143934E+02 0.  0.
       11    1    3    3    0    0 -0.62102261385E+02  0.35764396592E+02  0.50665729216E+03  0.51170049309E+03  0.00000000000E+00 0. -1.
      -12    1    3    3    0    0 -0.90886165434E+00 -0.20744592274E+02  0.46538486278E+03  0.46584786642E+03  0.00000000000E+00 0.  1.
        4    1    1    2  501    0  0.20907428880E+02 -0.27136743488E+02 -0.98607973251E+01  0.35647703340E+02  0.00000000000E+00 0.  1.
        2    1    1    2  502    0  0.42103694159E+02  0.12116939170E+02  0.36323534622E+03  0.36586808827E+03  0.00000000000E+00 0. -1.
</event>
<event>
 7   2  0.9172800E+00  0.8040000E+02  0.7957747E-01  0.1297830E+00
        1   -1    0    0  502    0  0.00000000000E+00  0.00000000000E+00  0.64390370409E+02  0.64390370409E+02  0.00000000000E+00 0. -1.
       21   -1    0    0  503  502  0.00000000000E+00  0.00000000000E+00 -0.21979356934E+03  0.21979356934E+03  0.00000000000E+00 0.  1.
      -24    2    1    2    0    0 -0.17093604643E+00 -0.13489312790E+02  0.15648255915E+02  0.80724746726E+02  0.78036056039E+02 0.  0.
       11    1    3    3    0    0 -0.28069894638E+02 -0.28990724200E+02  0.24996115577E+02  0.47467745561E+02  0.00000000000E+00 0. -1.
      -12    1    3    3    0    0  0.27898958592E+02  0.15501411410E+02 -0.93478596622E+01  0.33257001165E+02  0.00000000000E+00 0.  1.
       21    1    1    2  503  501 -0.54214816591E+02  0.12958237640E+02 -0.83905458464E+02  0.10073374916E+03  0.00000000000E+00 0.  1.
        2    1    1    2  501    0  0.54385752637E+02  0.53107515022E+00 -0.87145996379E+02  0.10272544386E+03  0.00000000000E+00 0. -1.
</event>
<event>
 7   2  0.9172800E+00  0.8040000E+02  0.7957747E-01  0.1297830E+00
        1   -1    0    0  502    0  0.00000000000E+00  0.00000000000E+00  0.58979704651E+03  0.58979704651E+03  0.00000000000E+00 0. -1.
       -2   -1    0    0    0  501  0.00000000000E+00  0.00000000000E+00 -0.20768149750E+02  0.20768149750E+02  0.00000000000E+00 0.  1.
      -24    2    1    2    0    0 -0.46318005297E+02 -0.70905695219E+02  0.27387158465E+03  0.29743169357E+03  0.79290555776E+02 0.  0.
       11    1    3    3    0    0 -0.36683676945E+02 -0.73337154784E+02  0.27542686442E+03  0.28737429960E+03  0.00000000000E+00 0. -1.
      -12    1    3    3    0    0 -0.96343283525E+01  0.24314595649E+01 -0.15552797704E+01  0.10057393976E+02  0.00000000000E+00 0.  1.
       21    1    1    2  502  503  0.23915626686E+01  0.26658808649E+02  0.18181244001E+03  0.18377207349E+03  0.00000000000E+00 0.  1.
       21    1    1    2  503  501  0.43926442629E+02  0.44246886570E+02  0.11334487210E+03  0.12936142920E+03  0.00000000000E+00 0.  1.
</event>
<event>
 7   2  0.9172800E+00  0.8040000E+02  0.7957747E-01  0.1297830E+00
       -2   -1    0    0    0  501  0.00000000000E+00  0.00000000000E+00  0.21547316116E+03  0.21547316116E+03  0.00000000000E+00 0.  1.
       21   -1    0    0  503  502  0.00000000000E+00  0.00000000000E+00 -0.25927444095E+02  0.25927444095E+02  0.00000000000E+00 0. -1.
      -24    2    1    2    0    0 -0.90691929890E+01 -0.68714666027E+01  0.18101704732E+03  0.19877711293E+03  0.81336965103E+02 0.  0.
       11    1    3    3    0    0  0.67439915522E+00 -0.37603484029E+02  0.14770849787E+03  0.15242138029E+03  0.00000000000E+00 0. -1.
      -12    1    3    3    0    0 -0.97435921442E+01  0.30732017427E+02  0.33308549446E+02  0.46355732646E+02  0.00000000000E+00 0.  1.
       21    1    1    2  503  501  0.32461824557E+01 -0.12169872230E+02  0.16854708168E+02  0.21041023693E+02  0.00000000000E+00 0. -1.
       -1    1    1    2    0  502  0.58230105333E+01  0.19041338832E+02 -0.83260384223E+01  0.21582468626E+02  0.00000000000E+00 0.  1.
</event>
<event>
 7   1  0.9172800E+00  0.8040000E+02  0.7957747E-01  0.1297830E+00
       21   -1    0    0  501  502  0.00000000000E+00  0.00000000000E+00  0.13912907736E+02  0.13912907736E+02  0.00000000000E+00 0. -1.
        2   -1    0    0  503    0  0.00000000000E+00  0.00000000000E+00 -0.77439966077E+03  0.77439966077E+03  0.00000000000E+00 0. -1.
       24    2    1    2    0    0  0.63063040206E+02  0.76850320101E+01 -0.40192396125E+03  0.41444626153E+03  0.78656381215E+02 0.  0.
      -11    1    3    3    0    0  0.22325121490E+02 -0.29507867505E+02 -0.84232536870E+02  0.92001334566E+02  0.00000000000E+00 0.  1.
       12    1    3    3    0    0  0.40737918716E+02  0.37192899515E+02 -0.31769142438E+03  0.32244492696E+03  0.00000000000E+00 0. -1.
       21    1    1    2  503  502  0.13711732531E+02 -0.15771223905E+02 -0.15048350509E+03  0.15192770787E+03  0.00000000000E+00 0. -1.
        1    1    1    2  501    0 -0.76774772737E+02  0.80861918946E+01 -0.20807928669E+03  0.22193859912E+03  0.00000000000E+00 0. -1.
</event>
<event>
 7   1  0.9172800E+00  0.8040000E+02  0.7957747E-01  0.1297830E+00
       21   -1    0    0  503  502  0.00000000000E+00  0.00000000000E+00  0.11633463593E+03  0.11633463593E+03  0.00000000000E+00 0. -1.
       -1   -1    0    0    0  501  0.00000000000E+00  0.00000000000E+00 -0.18921139724E+03  0.18921139724E+03  0.00000000000E+00 0.  1.
       24    2    1    2    0    0  0.31053803990E+02 -0.34763078998E+02 -0.15561357125E+03  0.18088436832E+03  0.79566077825E+02 0.  0.
      -11    1    3    3    0    0  0.27761804041E+02  0.15192391807E+02 -0.10511386623E+03  0.10977454808E+03  0.00000000000E+00 0.  1.
       12    1    3    3    0    0  0.32919999491E+01 -0.49955470805E+02 -0.50499705023E+02  0.71109820240E+02  0.00000000000E+00 0. -1.
       21    1    1    2  503  501 -0.52093250406E+02  0.45887945058E+02  0.60313519364E+02  0.91962660127E+02  0.00000000000E+00 0. -1.
       -2    1    1    2    0  502  0.21039446416E+02 -0.11124866060E+02  0.22423290577E+02  0.32699004734E+02  0.00000000000E+00 0.  1.
</event>
<event>
 7   1  0.9172800E+00  0.8040000E+02  0.7957747E-01  0.1297830E+00
        4   -1    0    0  503    0  0.00000000000E+00  0.00000000000E+00  0.78642044848E+03  0.78642044848E+03  0.00000000000E+00 0. -1.
       21   -1    0    0  501  502  0.00000000000E+00  0.00000000000E+00 -0.34842163472E+02  0.34842163472E+02  0.00000000000E+00 0. -1.
       24    2    1    2    0    0  0.11061741086E+03  0.41055588709E+00  0.52004725303E+03  0.53786796873E+03  0.81341417863E+02 0.  0.
      -11    1    3    3    0    0  0.50193021977E+00 -0.20785918894E+02  0.14284213730E+03  0.14434743693E+03  0.00000000000E+00 0.  1.
       12    1    3    3    0    0  0.11011548064E+03  0.21196474781E+02  0.37720511573E+03  0.39352053181E+03  0.00000000000E+00 0. -1.
       21    1    1    2  503  502 -0.32872616205E+02  0.51880270396E+02  0.50339127112E+02  0.79411580207E+02  0.00000000000E+00 0. -1.
        3    1    1    2  501    0 -0.77744794650E+02 -0.52290826283E+02  0.18119190486E+03  0.20398306301E+03  0.00000000000E+00 0. -1.
</event>
<event>
 7   2  0.9172800E+00  0.8040000E+02  0.7957747E-01  0.1297830E+00
        1   -1    0    0  503    0  0.00000000000E+00  0.00000000000E+00  0.19353751959E+03  0.19353751959E+03  0.00000000000E+00 0. -1.
       21   -1    0    0  501  502  0.00000000000E+00  0.00000000000E+00 -0.26392927860E+02  0.26392927860E+02  0.00000000000E+00 0.  1.
      -24    2    1    2    0    0 -0.13866991778E+02 -0.21965059000E+02  0.13608615444E+03  0.16048706106E+03  0.81005543382E+02 0.  0.
       11    1    3    3    0    0  0.15800945144E+02 -0.63203565867E+01  0.12349389926E+03  0.12466097998E+03  0.00000000000E+00 0. -1.
      -12    1    3    3    0    0 -0.29667936922E+02 -0.15644702414E+02  0.12592255179E+02  0.35826081077E+02  0.00000000000E+00 0.  1.
       21    1    1    2  503  502 -0.11651488977E+01  0.20872663222E+02 -0.39982915093E+01  0.21284078015E+02  0.00000000000E+00 0.  1.
        2    1    1    2  501    0  0.15032140676E+02  0.10923957782E+01  0.35056728795E+02  0.38159308375E+02  0.00000000000E+00 0. -1.
</event>
<event>
 7   2  0.9172800E+00  0.8040000E+02  0.7957747E-01  0.1297830E+00
       21   -1    0    0  503  502  0.00000000000E+00  0.00000000000E+00  0.13517986606E+03  0.13517986606E+03  0.00000000000E+00 0. -1.
        1   -1    0    0  502    0  0.00000000000E+00  0.00000000000E+00 -0.55168562912E+03  0.55168562912E+03  0.00000000000E+00 0. -1.
      -24    2    1    2    0    0  0.22391978704E+02  0.26450144979E+02 -0.50312391713E+03  0.51062233503E+03  0.80003013465E+02 0.  0.
       11    1    3    3    0    0  0.42120172595E+02 -0.11997312306E+02 -0.26952202004E+03  0.27305707046E+03  0.00000000000E+00 0. -1.
      -12    1    3    3    0    0 -0.19728193891E+02  0.38447457285E+02 -0.23360189709E+03  0.23756526457E+03  0.00000000000E+00 0.  1.
       21    1    1    2  503  501  0.42598314638E+01 -0.38686105448E+02  0.12328999020E+03  0.12928720974E+03  0.00000000000E+00 0. -1.
        2    1    1    2  501    0 -0.26651810168E+02  0.12235960468E+02 -0.36671836124E+02  0.46955950406E+02  0.00000000000E+00 0. -1.
</event>
<event>
 7   1  0.9172800E+00  0.8040000E+02  0.7957747E-01  0.1297830E+00
        2   -1    0    0  501    0  0.00000000000E+00  0.00000000000E+00  0.87138286903E+03  0.87138286903E+03  0.00000000000E+00 0. -1.
       -3   -1    0    0    0  501  0.00000000000E+00  0.00000000000E+00 -0.40087489506E+02  0.40087489506E+02  0.00000000000E+00 0.  1.
       24    2    1    2    0    0  0.34880396407E+02 -0.19912353394E+02  0.46172585544E+02  0.96270156433E+02  0.74316159028E+02 0.  0.
      -11    1    3    3    0    0 -0.17680611527E+02 -0.17203904447E+02  0.34412661546E+02  0.42341582716E+02  0.00000000000E+00 0.  1.
       12    1    3    3    0    0  0.52561007934E+02 -0.27084489466E+01  0.11759923997E+02  0.53928573717E+02  0.00000000000E+00 0. -1.
        2    1    1    2  502    0 -0.66145484238E+02  0.13283462414E+02  0.77990418514E+03  0.78281684541E+03  0.00000000000E+00 0. -1.
       -4    1    1    2    0  502  0.31265087831E+02  0.66288909800E+01  0.52186088457E+01  0.32383356697E+02  0.00000000000E+00 0.  1.
</event>
<event>
 7   1  0.9172800E+00  0.8040000E+02  0.7957747E-01  0.1297830E+00
        2   -1    0    0  503    0  0.00000000000E+00  0.00000000000E+00  0.14485050386E+04  0.14485050386E+04  0.00000000000E+00 0. -1.
       21   -1    0    0  501  502  0.00000000000E+00  0.00000000000E+00 -0.55764568857E+01  0.55764568857E+01  0.00000000000E+00 0.  1.
       24    2    1    2    0    0 -0.28126662753E+02  0.15246008991E+02  0.12592268224E+04  0.12621994406E+04  0.80446800186E+02 0.  0.
      -11    1    3    3    0    0  0.24640829848E+02  0.20282646473E+02  0.59818104867E+03  0.59903182155E+03  0.00000000000E+00 0.  1.
       12    1    3    3    0    0 -0.52767492601E+02 -0.50366374810E+01  0.66104577375E+03  0.66316761907E+03  0.00000000000E+00 0. -1.
       21    1    1    2  503  502  0.10952241845E+02 -0.14540298235E+02  0.19100093398E+02  0.26385326263E+02  0.00000000000E+00 0.  1.
        1    1    1    2  501    0  0.17174420907E+02 -0.70571075687E+00  0.16460166586E+03  0.16549672857E+03  0.00000000000E+00 0. -1.
</event>
<event>
 7   1  0.9172800E+00  0.8040000E+02  0.7957747E-01  0.1297830E+00
        2   -1    0    0  502    0  0.00000000000E+00  0.00000000000E+00  0.85051285865E+03  0.85051285865E+03  0.00000000000E+00 0. -1.
       21   -1    0    0  503  502  0.00000000000E+00  0.00000000000E+00 -0.60074453443E+01  0.60074453443E+01  0.00000000000E+00 0. -1.
       24    2    1    2    0    0  0.14682260122E+02  0.28583481566E+02  0.43080949955E+03  0.43959970154E+03  0.81354093390E+02 0.  0.
      -11    1    3    3    0    0 -0.18243328859E+00 -0.52309952699E+01 -0.17095408985E+01  0.55062803690E+01  0.00000000000E+00 0.  1.
       12    1    3    3    0    0  0.14864693411E+02  0.33814476836E+02  0.43251904045E+03  0.43409342118E+03  0.00000000000E+00 0. -1.
       21    1    1    2  503  501  0.13337298410E+02 -0.47141822381E+01  0.84848569676E+02  0.86019688555E+02  0.00000000000E+00 0. -1.
        1    1    1    2  501    0 -0.28019558532E+02 -0.23869299328E+02  0.32884734408E+03  0.33090091390E+03  0.00000000000E+00 0. -1.
</event>
<event>
 7   1  0.9172800E+00  0.8040000E+02  0.7957747E-01  0.1297830E+00
       21   -1    0    0  501  502  0.00000000000E+00  0.00000000000E+00  0.37074888453E+03  0.37074888453E+03  0.00000000000E+00 0. -1.
        4   -1    0    0  503    0  0.00000000000E+00  0.00000000000E+00 -0.72912908140E+02  0.72912908140E+02  0.00000000000E+00 0. -1.
       24    2    1    2    0    0  0.70849806519E+02 -0.48542707224E+01 -0.18192472263E+02  0.10999659978E+03  0.82006261276E+02 0.  0.
      -11    1    3    3    0    0 -0.17364084393E+02 -0.96398218415E+00  0.60776653395E+01  0.18422233970E+02  0.00000000000E+00 0.  1.
       12    1    3    3    0    0  0.88213890911E+02 -0.38902885383E+01 -0.24270137602E+02  0.91574365812E+02  0.00000000000E+00 0. -1.
       21    1    1    2  503  502 -0.28250978167E+02  0.71921138522E+00  0.26738245556E+03  0.26887174000E+03  0.00000000000E+00 0. -1.
        3    1    1    2  501    0 -0.42598828352E+02  0.41350593372E+01  0.48645993095E+02  0.64793452886E+02  0.00000000000E+00 0. -1.
</event>
<event>
 7   2  0.9172800E+00  0.8040000E+02  0.7957747E-01  0.1297830E+00
       21   -1    0    0  503  502  0.00000000000E+00  0.00000000000E+00  0.42467415042E+02  0.42467415042E+02  0.00000000000E+00 0. -1.
       21   -1    0    0  501  503  0.00000000000E+00  0.00000000000E+00 -0.13171358278E+03  0.13171358278E+03  0.00000000000E+00 0.  1.
      -24    2    1    2    0    0  0.24236282329E+02  0.20361432601E+02 -0.50180386607E+02  0.10391201466E+03  0.85309145301E+02 0.  0.
       11    1    3    3    0    0  0.88302359395E+01 -0.46909369677E+01  0.22980200303E+02  0.25061276151E+02  0.00000000000E+00 0. -1.
      -12    1    3    3    0    0  0.15406046389E+02  0.25052369569E+02 -0.73160586910E+02  0.78850738508E+02  0.00000000000E+00 0.  1.
        4    1    1    2  501    0  0.36064613649E+01 -0.23737676726E+02 -0.24338174567E+01  0.24133116818E+02  0.00000000000E+00 0. -1.
       -3    1    1    2    0  502 -0.27842743694E+02  0.33762441253E+01 -0.36631963679E+02  0.46135866349E+02  0.00000000000E+00 0.  1.
</event>
<event>
 7   1  0.9172800E+00  0.8040000E+02  0.7957747E-01  0.1297830E+00
       21   -1    0    0  501  502  0.00000000000E+00  0.00000000000E+00  0.28193347042E+03  0.28193347042E+03  0.00000000000E+00 0. -1.
       21   -1    0    0  502  503  0.00000000000E+00  0.00000000000E+00 -0.22024222276E+03  0.22024222276E+03  0.00000000000E+00 0.  1.
       24    2    1    2    0    0  0.58153757690E+01  0.14732035930E+03  0.10719718406E+03  0.19932950672E+03  0.80646817171E+02 0.  0.
      -11    1    3    3    0    0 -0.11177993289E+01  0.45804775134E+02 -0.70299764509E+01  0.46354584124E+02  0.00000000000E+00 0.  1.
       12    1    3    3    0    0  0.69331750979E+01  0.10151558416E+03  0.11422716051E+03  0.15297492259E+03  0.00000000000E+00 0. -1.
        3    1    1    2  501    0 -0.16793477526E+02 -0.69909116018E+02  0.10848282327E+03  0.13014541226E+03  0.00000000000E+00 0. -1.
       -4    1    1    2    0  503  0.10978101757E+02 -0.77411243279E+02 -0.15398875966E+03  0.17270077419E+03  0.00000000000E+00 0.  1.
</event>
<event>
 7   2  0.9172800E+00  0.8040000E+02  0.7957747E-01  0.1297830E+00
       21   -1    0    0  503  502  0.00000000000E+00  0.00000000000E+00  0.52706754665E+02  0.52706754665E+02  0.00000000000E+00 0.  1.
       -4   -1    0    0    0  501  0.00000000000E+00  0.00000000000E+00 -0.36289893083E+03  0.36289893083E+03  0.00000000000E+00 0.  1.
      -24    2    1    2    0    0 -0.83030937492E+02 -0.11918003318E+02 -0.25886673190E+03  0.28374117407E+03  0.80379683945E+02 0.  0.
       11    1    3    3    0    0 -0.91954457588E+01  0.24243732216E+02 -0.11640672358E+03  0.11925954918E+03  0.00000000000E+00 0. -1.
      -12    1    3    3    0    0 -0.73835491733E+02 -0.36161735533E+02 -0.14246000832E+03  0.16448162489E+03  0.00000000000E+00 0.  1.
       21    1    1    2  503  501  0.45510065440E+02 -0.13732059638E+02  0.16413534624E+02  0.50290552165E+02  0.00000000000E+00 0.  1.
       -3    1    1    2    0  502  0.37520872052E+02  0.25650062956E+02 -0.67738978884E+02  0.81573959260E+02  0.00000000000E+00 0.  1.
</event>
<event>
 7   1  0.9172800E+00  0.8040000E+02  0.7957747E-01  0.1297830E+00
       21   -1    0    0  503  502  0.00000000000E+00  0.00000000000E+00  0.19577014101E+03  0.19577014101E+03  0.00000000000E+00 0.  1.
       -1   -1    0    0    0  501  0.00000000000E+00  0.00000000000E+00 -0.44226566169E+02  0.44226566169E+02  0.00000000000E+00 0.  1.
       24    2    1    2    0    0  0.11962022723E+02  0.31230159589E+02  0.22930122423E+02  0.91487423296E+02  0.82010641087E+02 0.  0.
      -11    1    3    3    0    0  0.75268858187E+01  0.59005858570E+02  0.21748131864E+02  0.63335034501E+02  0.00000000000E+00 0.  1.
       12    1    3    3    0    0  0.44351369041E+01 -0.27775698980E+02  0.11819905589E+01  0.28152388795E+02  0.00000000000E+00 0. -1.
       21    1    1    2  503  501  0.17902061535E+02 -0.24004160428E+02  0.20945939260E+02  0.36543342712E+02  0.00000000000E+00 0.  1.
       -2    1    1    2    0  502 -0.29864084258E+02 -0.72259991613E+01  0.10766751316E+03  0.11196594117E+03  0.00000000000E+00 0.  1.
</event>
<event>
 7   1  0.9172800E+00  0.8040000E+02  0.7957747E-01  0.1297830E+00
       21   -1    0    0  501  502  0.00000000000E+00  0.00000000000E+00  0.17249023878E+02  0.17249023878E+02  0.00000000000E+00 0. -1.
        2   -1    0    0  503    0  0.00000000000E+00  0.00000000000E+00 -0.49550898874E+03  0.49550898874E+03  0.00000000000E+00 0. -1.
       24    2    1    2    0    0 -0.35251651127E+02  0.94685572030E+01 -0.38149551178E+03  0.39184781275E+03  0.81691801089E+02 0.  0.
      -11    1    3    3    0    0  0.21258760403E+02 -0.15210617322E+02 -0.81836723714E+02  0.85910110705E+02  0.00000000000E+00 0.  1.
       12    1    3    3    0    0 -0.56510411530E+02  0.24679174525E+02 -0.29965878807E+03  0.30593770204E+03  0.00000000000E+00 0. -1.
       21    1    1    2  503  502 -0.99815131476E+01 -0.12013902841E+02 -0.18384348106E+01  0.15727183751E+02  0.00000000000E+00 0. -1.
        1    1    1    2  501    0  0.45233164275E+02  0.25453456385E+01 -0.94926018269E+02  0.10518301612E+03  0.00000000000E+00 0. -1.
</event>
<event>
 7   1  0.9172800E+00  0.8040000E+02  0.7957747E-01  0.1297830E+00
        4   -1    0    0  503    0  0.00000000000E+00  0.00000000000E+00  0.93931385511E+02  0.93931385511E+02  0.00000000000E+00 0. -1.
       21   -1    0    0  501  502  0.00000000000E+00  0.00000000000E+00 -0.13246143836E+03  0.13246143836E+03  0.00000000000E+00 0. -1.
       24    2    1    2    0    0  0.16036171453E+01  0.39016406798E+02 -0.91950992577E+01  0.89097371523E+02  0.79554636411E+02 0.  0.
      -11    1    3    3    0    0 -0.47451001647E+01  0.50393022262E+02  0.22076174457E+02  0.55220740188E+02  0.00000000000E+00 0.  1.
       12    1    3    3    0    0  0.63487173100E+01 -0.11376615463E+02 -0.31271273715E+02  0.33876631335E+02  0.00000000000E+00 0. -1.
       21    1    1    2  503  502 -0.16279213595E+02  0.73172352166E+01 -0.71042960601E+02  0.73250644894E+02  0.00000000000E+00 0.  1.
        3    1    1    2  501    0  0.14675596450E+02 -0.46333642015E+02  0.41708007007E+02  0.64044807456E+02  0.00000000000E+00 0. -1.
</event>
<event>
 7   2  0.9172800E+00  0.8040000E+02  0.7957747E-01  0.1297830E+00
        1   -1    0    0  503    0  0.00000000000E+00  0.00000000000E+00  0.66760574636E+03  0.66760574636E+03  0.00000000000E+00 0. -1.
       -2   -1    0    0    0  501  0.00000000000E+00  0.00000000000E+00 -0.10127577827E+02  0.10127577827E+02  0.00000000000E+00 0.  1.
      -24    2    1    2    0    0  0.29159660814E+02  0.31247373053E+01  0.35785011092E+03  0.36874932185E+03  0.84019704096E+02 0.  0.
       11    1    3    3    0    0  0.32486426955E+02 -0.12523105018E+02  0.34846908050E+03  0.35020407787E+03  0.00000000000E+00 0. -1.
      -12    1    3    3    0    0 -0.33267661413E+01  0.15647842323E+02  0.93810304213E+01  0.18545243975E+02  0.00000000000E+00 0.  1.
       21    1    1    2  502  501 -0.49027552697E+02 -0.53074325149E+01  0.14696329960E+03  0.15501639008E+03  0.00000000000E+00 0.  1.
       21    1    1    2  503  502  0.19867891882E+02  0.21826952096E+01  0.15266475801E+03  0.15396761226E+03  0.00000000000E+00 0.  1.
</event>
<event>
 7   1  0.9172800E+00  0.8040000E+02  0.7957747E-01  0.1297830E+00
       21   -1    0    0  501  502  0.00000000000E+00  0.00000000000E+00  0.48634761687E+01  0.48634761687E+01  0.00000000000E+00 0.  1.
        2   -1    0    0  503    0  0.00000000000E+00  0.00000000000E+00 -0.11927862302E+04  0.11927862302E+04  0.00000000000E+00 0. -1.
       24    2    1    2    0    0 -0.27415941342E+02  0.20810691600E+01 -0.92589042365E+03  0.93009913072E+03  0.83996140875E+02 0.  0.
      -11    1    3    3    0    0 -0.22416024534E+02  0.16962523718E+02 -0.95277075458E+02  0.99337437427E+02  0.00000000000E+00 0.  1.
       12    1    3    3    0    0 -0.49999168079E+01 -0.14881454558E+02 -0.83061334819E+03  0.83076169330E+03  0.00000000000E+00 0. -1.
       21    1    1    2  503  502 -0.10133411811E+02  0.70315743944E+01 -0.10982138135E+03  0.11051183138E+03  0.00000000000E+00 0.  1.
        1    1    1    2  501    0  0.37549353153E+02 -0.91126435544E+01 -0.15221094905E+03  0.15703874428E+03  0.00000000000E+00 0. -1.
</event>
<event>
 7   2  0.9172800E+00  0.8040000E+02  0.7957747E-01  0.1297830E+00
        1   -1    0    0  503    0  0.00000000000E+00  0.00000000000E+00  0.65552608424E+03  0.65552608424E+03  0.00000000000E+00 0. -1.
       21   -1    0    0  501  502  0.00000000000E+00  0.00000000000E+00 -0.98771768510E+02  0.98771768510E+02  0.00000000000E+00 0.  1.
      -24    2    1    2    0    0  0.12464267577E+02  0.13067106215E+02  0.60281902814E+03  0.60812609878E+03  0.78105467759E+02 0.  0.
       11    1    3    3    0    0  0.35353122129E+02  0.76097169854E+00  0.52276635997E+03  0.52396096175E+03  0.00000000000E+00 0. -1.
      -12    1    3    3    0    0 -0.22888854552E+02  0.12306134517E+02  0.80052668174E+02  0.84165137030E+02  0.00000000000E+00 0.  1.
       21    1    1    2  503  502 -0.36778210549E+01  0.20038710036E+02 -0.88969101961E+02  0.91271996644E+02  0.00000000000E+00 0.  1.
        2    1    1    2  501    0 -0.87864465219E+01 -0.33105816252E+02  0.42904389548E+02  0.54899757328E+02  0.00000000000E+00 0. -1.
</event>
<event>
 7   1  0.9172800E+00  0.8040000E+02  0.7957747E-01  0.1297830E+00
        2   -1    0    0  503    0  0.00000000000E+00  0.00000000000E+00  0.55458904723E+03  0.55458904723E+03  0.00000000000E+00 0. -1.
       21   -1    0    0  501  502  0.00000000000E+00  0.00000000000E+00 -0.30405916943E+02  0.30405916943E+02  0.00000000000E+00 0.  1.
       24    2    1    2    0    0  0.57788876381E+02 -0.20608647361E+02  0.29445936678E+03  0.31121070664E+03  0.79884383078E+02 0.  0.
      -11    1    3    3    0    0  0.52170464789E+02 -0.17333961134E+02  0.82422708855E+02  0.99074348547E+02  0.00000000000E+00 0.  1.
       12    1    3    3    0    0  0.56184115921E+01 -0.32746862274E+01  0.21203665793E+03  0.21213635809E+03  0.00000000000E+00 0. -1.
       21    1    1    2  503  502 -0.29411834405E+02  0.15631489695E+02 -0.80539148738E+01  0.34267550510E+02  0.00000000000E+00 0.  1.
        1    1    1    2  501    0 -0.28377041976E+02  0.49771576665E+01  0.23777767838E+03  0.23951670702E+03  0.00000000000E+00 0. -1.
</event>
<event>
 7   1  0.9172800E+00  0.8040000E+02  0.7957747E-01  0.1297830E+00
        2   -1    0    0  503    0  0.00000000000E+00  0.00000000000E+00  0.82992845043E+03  0.82992845043E+03  0.00000000000E+00 0. -1.
       21   -1    0    0  501  502  0.00000000000E+00  0.00000000000E+00 -0.20237720336E+02  0.20237720336E+02  0.00000000000E+00 0.  1.
       24    2    1    2    0    0 -0.16311366333E+02 -0.21281636616E+02  0.79453793745E+03  0.79893916776E+03  0.79336567824E+02 0.  0.
      -11    1    3    3    0    0  0.12717717721E+02 -0.43451655467E+02  0.35270060631E+03  0.35559457870E+03  0.00000000000E+00 0.  1.
       12    1    3    3    0    0 -0.29029084054E+02  0.22170018852E+02  0.44183733114E+03  0.44334458906E+03  0.00000000000E+00 0. -1.
       21    1    1    2  503  502 -0.78178149601E+01  0.15075233565E+02 -0.65344518788E+01  0.18195602742E+02  0.00000000000E+00 0.  1.
        1    1    1    2  501    0  0.24129181293E+02  0.62064030513E+01  0.21687244515E+02  0.33031400263E+02  0.00000000000E+00 0. -1.
</event>
<event>
 7   1  0.9172800E+00  0.8040000E+02  0.7957747E-01  0.1297830E+00
       21   -1    0    0  501  502  0.00000000000E+00  0.00000000000E+00  0.71575451322E+03  0.71575451322E+03  0.00000000000E+00 0. -1.
        2   -1    0    0  503    0  0.00000000000E+00  0.00000000000E+00 -0.38993932062E+02  0.38993932062E+02  0.00000000000E+00 0. -1.
       24    2    1    2    0    0  0.72988453918E+02  0.67469845471E+02  0.15486403024E+03  0.20123245545E+03  0.81437944534E+02 0.  0.
      -11    1    3    3    0    0 -0.27190363699E+01 -0.13699367490E+02  0.35937881337E+02  0.38556415074E+02  0.00000000000E+00 0.  1.
       12    1    3    3    0    0  0.75707490288E+02  0.81169212961E+02  0.11892614890E+03  0.16267604037E+03  0.00000000000E+00 0. -1.
       21    1    1    2  503  502  0.45555714793E+01  0.41480199162E+02  0.21086769858E+03  0.21495708051E+03  0.00000000000E+00 0. -1.
        1    1    1    2  501    0 -0.77544025397E+02 -0.10895004463E+03  0.31102885233E+03  0.33855890933E+03  0.00000000000E+00 0. -1.
</event>
<event>
 7   1  0.9172800E+00  0.8040000E+02  0.7957747E-01  0.1297830E+00
       21   -1    0    0  501  502  0.00000000000E+00  0.00000000000E+00  0.82378304217E+02  0.82378304217E+02  0.00000000000E+00 0. -1.
        2   -1    0    0  503    0  0.00000000000E+00  0.00000000000E+00 -0.17485179332E+03  0.17485179332E+03  0.00000000000E+00 0. -1.
       24    2    1    2    0    0 -0.47450421232E+02 -0.58104095957E+02 -0.10911686459E+03  0.15505267885E+03  0.80667308357E+02 0.  0.
      -11    1    3    3    0    0 -0.45809931897E+02 -0.10260567022E+02 -0.14699187605E+02  0.49192430437E+02  0.00000000000E+00 0.  1.
       12    1    3    3    0    0 -0.16404893355E+01 -0.47843528934E+02 -0.94417676987E+02  0.10586024841E+03  0.00000000000E+00 0. -1.
       21    1    1    2  503  502 -0.76169455332E+01 -0.95536717571E+01 -0.33724805473E+01  0.12675335433E+02  0.00000000000E+00 0. -1.
        1    1    1    2  501    0  0.55067366766E+02  0.67657767714E+02  0.20015856035E+02  0.89502083257E+02  0.00000000000E+00 0. -1.
</event>
<event>
 7   1  0.9172800E+00  0.8040000E+02  0.7957747E-01  0.1297830E+00
       21   -1    0    0  503  502  0.00000000000E+00  0.00000000000E+00  0.33120439656E+03  0.33120439656E+03  0.00000000000E+00 0.  1.
       -1   -1    0    0    0  501  0.00000000000E+00  0.00000000000E+00 -0.25617898123E+02  0.25617898123E+02  0.00000000000E+00 0.  1.
       24    2    1    2    0    0 -0.11457388063E+02  0.48635452662E+02  0.14739560680E+03  0.17430743170E+03  0.78491635527E+02 0.  0.
      -11    1    3    3    0    0 -0.34157479153E+02  0.29264201051E+02  0.32220002797E+02  0.55328613081E+02  0.00000000000E+00 0.  1.
       12    1    3    3    0    0  0.22700091090E+02  0.19371251611E+02  0.11517560400E+03  0.11897881862E+03  0.00000000000E+00 0. -1.
       21    1    1    2  503  501 -0.93642004631E+01 -0.12843404759E+02  0.13321062664E+03  0.13415555279E+03  0.00000000000E+00 0.  1.
       -2    1    1    2    0  502  0.20821588526E+02 -0.35792047903E+02  0.24980265001E+02  0.48359310183E+02  0.00000000000E+00 0.  1.
</event>
<event>
 7   1  0.9172800E+00  0.8040000E+02  0.7957747E-01  0.1297830E+00
       -1   -1    0    0    0  501  0.00000000000E+00  0.00000000000E+00  0.12907308193E+03  0.12907308193E+03  0.00000000000E+00 0.  1.
        2   -1    0    0  502    0  0.00000000000E+00  0.00000000000E+00 -0.31966916492E+02  0.31966916492E+02  0.00000000000E+00 0. -1.
       24    2    1    2    0    0 -0.10419221168E+02  0.18854886885E+02  0.56147338746E+02  0.99731917148E+02  0.79560446960E+02 0.  0.
      -11    1    3    3    0    0 -0.21811278121E+02  0.20308755721E+02  0.73278751261E+02  0.79107223429E+02  0.00000000000E+00 0.  1.
       12    1    3    3    0    0  0.11392056953E+02 -0.14538688354E+01 -0.17131412515E+02  0.20624693719E+02  0.00000000000E+00 0. -1.
       21    1    1    2  502  503 -0.67836880588E+01 -0.17996282837E+02  0.27911329719E+01  0.19433863304E+02  0.00000000000E+00 0. -1.
       21    1    1    2  503  501  0.17202909227E+02 -0.85860404793E+00  0.38167693721E+02  0.41874217972E+02  0.00000000000E+00 0.  1.
</event>
<event>
 7   1  0.9172800E+00  0.8040000E+02  0.7957747E-01  0.1297830E+00
       21   -1    0    0  501  502  0.00000000000E+00  0.00000000000E+00  0.18491675189E+03  0.18491675189E+03  0.00000000000E+00 0. -1.
        2   -1    0    0  503    0  0.00000000000E+00  0.00000000000E+00 -0.13287701568E+04  0.13287701568E+04  0.00000000000E+00 0. -1.
       24    2    1    2    0    0  0.20213736548E+02 -0.21081096359E+02 -0.35216666914E+03  0.36233976690E+03  0.80098289959E+02 0.  0.
      -11    1    3    3    0    0 -0.15044704457E+02 -0.41161969475E+02 -0.15713952891E+03  0.16313639204E+03  0.00000000000E+00 0.  1.
       12    1    3    3    0    0  0.35258441005E+02  0.20080873115E+02 -0.19502714023E+03  0.19920337486E+03  0.00000000000E+00 0. -1.
       21    1    1    2  503  502  0.25708249134E+02 -0.45918198098E+02  0.17423873406E+03  0.18201244857E+03  0.00000000000E+00 0. -1.
        1    1    1    2  501    0 -0.45921985682E+02  0.66999294457E+02 -0.96592546979E+03  0.96933469319E+03  0.00000000000E+00 0. -1.
</event>
<event>
 7   2  0.9172800E+00  0.8040000E+02  0.7957747E-01  0.1297830E+00
       21   -1    0    0  501  502  0.00000000000E+00  0.00000000000E+00  0.56929086944E+02  0.56929086944E+02  0.00000000000E+00 0. -1.
       -2   -1    0    0    0  501  0.00000000000E+00  0.00000000000E+00 -0.25036665688E+03  0.25036665688E+03  0.00000000000E+00 0.  1.
      -24    2    1    2    0    0  0.26540234024E+02  0.12016197989E+02 -0.16273932199E+03  0.18426771836E+03  0.81374025780E+02 0.  0.
       11    1    3    3    0    0  0.43123604957E+02  0.21460763198E+02 -0.15717275729E+03  0.16438821520E+03  0.00000000000E+00 0. -1.
      -12    1    3    3    0    0 -0.16583370934E+02 -0.94445652090E+01 -0.55665647029E+01  0.19879503165E+02  0.00000000000E+00 0.  1.
       21    1    1    2  503  502  0.22843407409E+01  0.15485879862E+02  0.39402054936E+02  0.42397554421E+02  0.00000000000E+00 0. -1.
       -1    1    1    2    0  503 -0.28824574765E+02 -0.27502077851E+02 -0.70100302879E+02  0.80630471040E+02  0.00000000000E+00 0.  1.
</event>
<event>
 7   2  0.9172800E+00  0.8040000E+02  0.7957747E-01  0.1297830E+00
       21   -1    0    0  501  502  0.00000000000E+00  0.00000000000E+00  0.54230321189E+02  0.54230321189E+02  0.00000000000E+00 0. -1.
       -2   -1    0    0    0  501  0.00000000000E+00  0.00000000000E+00 -0.15423407230E+03  0.15423407230E+03  0.00000000000E+00 0.  1.
      -24    2    1    2    0    0 -0.29428282678E+02  0.18302924093E+02 -0.52036986238E+01  0.88139157677E+02  0.80872812396E+02 0.  0.
       11    1    3    3    0    0 -0.42061642992E+02  0.37313523853E+01  0.27343842757E+02  0.50306963122E+02  0.00000000000E+00 0. -1.
      -12    1    3    3    0    0  0.12633360314E+02  0.14571571708E+02 -0.32547541381E+02  0.37832194554E+02  0.00000000000E+00 0.  1.
       21    1    1    2  503  502 -0.13233777479E+02 -0.36748796612E+01  0.16678036886E+01  0.13835431906E+02  0.00000000000E+00 0.  1.
       -1    1    1    2    0  503  0.42662060157E+02 -0.14628044432E+02 -0.96467856174E+02  0.10648980390E+03  0.00000000000E+00 0.  1.
</event>
<event>
 7   2  0.9172800E+00  0.8040000E+02  0.7957747E-01  0.1297830E+00
        1   -1    0    0  503    0  0.00000000000E+00  0.00000000000E+00  0.65272772412E+02  0.65272772412E+02  0.00000000000E+00 0. -1.
       21   -1    0    0  501  502  0.00000000000E+00  0.00000000000E+00 -0.16115865612E+03  0.16115865612E+03  0.00000000000E+00 0. -1.
      -24    2    1    2    0    0 -0.48610450805E+01 -0.12816656359E+02  0.22165973848E+02  0.84302325052E+02  0.80172658513E+02 0.  0.
       11    1    3    3    0    0 -0.32656012627E+02 -0.28443369200E+02  0.28432423317E+02  0.51805821177E+02  0.00000000000E+00 0. -1.
      -12    1    3    3    0    0  0.27794967547E+02  0.15626712841E+02 -0.62664494696E+01  0.32496503875E+02  0.00000000000E+00 0.  1.
       21    1    1    2  503  502  0.18342832129E+02 -0.22050300014E+01  0.35929970504E+01  0.18821032799E+02  0.00000000000E+00 0. -1.
        2    1    1    2  501    0 -0.13481787048E+02  0.15021686361E+02 -0.12164485460E+03  0.12330807068E+03  0.00000000000E+00 0. -1.
</event>
<event>
 7   1  0.9172800E+00  0.8040000E+02  0.7957747E-01  0.1297830E+00
        2   -1    0    0  503    0  0.00000000000E+00  0.00000000000E+00  0.71998245934E+03  0.71998245934E+03  0.00000000000E+00 0. -1.
       21   -1    0    0  501  502  0.00000000000E+00  0.00000000000E+00 -0.44047555546E+01  0.44047555546E+01  0.00000000000E+00 0. -1.
       24    2    1    2    0    0  0.45810175794E+01  0.84093934648E+00  0.51276690213E+03  0.51891996062E+03  0.79538272004E+02 0.  0.
      -11    1    3    3    0    0  0.23953885153E+02 -0.16188958315E+02  0.45176106575E+03  0.45268524552E+03  0.00000000000E+00 0.  1.
       12    1    3    3    0    0 -0.19372867573E+02  0.17029897661E+02  0.61005836380E+02  0.66234715103E+02  0.00000000000E+00 0. -1.
       21    1    1    2  503  502 -0.23871405186E+01  0.14026898393E+02  0.14636505926E+03  0.14705503355E+03  0.00000000000E+00 0. -1.
        1    1    1    2  501    0 -0.21938770608E+01 -0.14867837740E+02  0.56445742393E+02  0.58412220724E+02  0.00000000000E+00 0. -1.
</event>
<event>
 7   2  0.9172800E+00  0.8040000E+02  0.7957747E-01  0.1297830E+00
       21   -1    0    0  503  502  0.00000000000E+00  0.00000000000E+00  0.63538233602E+02  0.63538233602E+02  0.00000000000E+00 0.  1.
       -4   -1    0    0    0  501  0.00000000000E+00  0.00000000000E+00 -0.17488410316E+03  0.17488410316E+03  0.00000000000E+00 0.  1.
      -24    2    1    2    0    0  0.32165227258E+02  0.95800147539E+01 -0.10185487217E+03  0.13498702364E+03  0.81979894107E+02 0.  0.
       11    1    3    3    0    0 -0.14668787286E+02  0.15815479630E+02  0.12139194760E+01  0.21605006754E+02  0.00000000000E+00 0. -1.
      -12    1    3    3    0    0  0.46834014544E+02 -0.62354648760E+01 -0.10306879165E+03  0.11338201688E+03  0.00000000000E+00 0.  1.
       21    1    1    2  503  501 -0.22837173685E+02 -0.27448514709E+02 -0.48086183618E+02  0.59893559893E+02  0.00000000000E+00 0. -1.
       -3    1    1    2    0  502 -0.93280535725E+01  0.17868499955E+02  0.38595186233E+02  0.43541753231E+02  0.00000000000E+00 0.  1.
</event>
<event>
 7   1  0.9172800E+00  0.8040000E+02  0.7957747E-01  0.1297830E+00
        2   -1    0    0  503    0  0.00000000000E+00  0.00000000000E+00  0.39979728658E+03  0.39979728658E+03  0.00000000000E+00 0. -1.
       21   -1    0    0  501  502  0.00000000000E+00  0.00000000000E+00 -0.25618967377E+02  0.25618967377E+02  0.00000000000E+00 0.  1.
       24    2    1    2    0    0  0.12153674261E+02  0.66020244000E+01  0.19411028024E+03  0.21066565960E+03  0.80684079686E+02 0.  0.
      -11    1    3    3    0    0  0.10708069870E+02 -0.22174947095E+02  0.14124665871E+02  0.28388329027E+02  0.00000000000E+00 0.  1.
       12    1    3    3    0    0  0.14456043914E+01  0.28776971495E+02  0.17998561437E+03  0.18227733057E+03  0.00000000000E+00 0. -1.
       21    1    1    2  503  502 -0.38119271038E+02 -0.51354866621E+02  0.11533474749E+03  0.13188064729E+03  0.00000000000E+00 0.  1.
        1    1    1    2  501    0  0.25965596777E+02  0.44752842221E+02  0.64733291475E+02  0.82869947074E+02  0.00000000000E+00 0. -1.
</event>
<event>
 7   2  0.9172800E+00  0.8040000E+02  0.7957747E-01  0.1297830E+00
        1   -1    0    0  502    0  0.00000000000E+00  0.00000000000E+00  0.96817426327E+02  0.96817426327E+02  0.00000000000E+00 0. -1.
        2   -1    0    0  501    0  0.00000000000E+00  0.00000000000E+00 -0.59468386880E+03  0.59468386880E+03  0.00000000000E+00 0.  1.
      -24    2    1    2    0    0 -0.33374758303E+02 -0.21819297885E+02  0.69398257924E+02  0.11463946962E+03  0.82073951647E+02 0.  0.
       11    1    3    3    0    0 -0.53090576334E+02  0.97422469692E+01  0.39080926555E+02  0.66639624038E+02  0.00000000000E+00 0. -1.
      -12    1    3    3    0    0  0.19715818031E+02 -0.31561544854E+02  0.30317331369E+02  0.47999845578E+02  0.00000000000E+00 0.  1.
        2    1    1    2  501    0  0.18402056576E+02 -0.64549876237E+01 -0.17606878409E+02  0.26273650655E+02  0.00000000000E+00 0. -1.
        2    1    1    2  502    0  0.14972701727E+02  0.28274285508E+02 -0.54965782199E+03  0.55058817486E+03  0.00000000000E+00 0.  1.
</event>
<event>
 7   1  0.9172800E+00  0.8040000E+02  0.7957747E-01  0.1297830E+00
       21   -1    0    0  501  502  0.00000000000E+00  0.00000000000E+00  0.28985319138E+02  0.28985319138E+02  0.00000000000E+00 0. -1.
        2   -1    0    0  503    0  0.00000000000E+00  0.00000000000E+00 -0.78429270012E+03  0.78429270012E+03  0.00000000000E+00 0. -1.
       24    2    1    2    0    0  0.33646022308E+02 -0.33056455657E+02 -0.68939934520E+03  0.69657758614E+03  0.87886815151E+02 0.  0.
      -11    1    3    3    0    0 -0.16531511536E+02 -0.44086642290E+02 -0.27440154895E+03  0.27841180464E+03  0.00000000000E+00 0.  1.
       12    1    3    3    0    0  0.50177533844E+02  0.11030186634E+02 -0.41499779625E+03  0.41816578150E+03  0.00000000000E+00 0. -1.
       21    1    1    2  503  502  0.43127572569E+01 -0.22245435717E+02  0.48046717365E-02  0.22659640520E+02  0.00000000000E+00 0. -1.
        1    1    1    2  501    0 -0.37958779565E+02  0.55301891374E+02 -0.65912840459E+02  0.94040792601E+02  0.00000000000E+00 0. -1.
</event>
<event>
 7   2  0.9172800E+00  0.8040000E+02  0.7957747E-01  0.1297830E+00
        1   -1    0    0  503    0  0.00000000000E+00  0.00000000000E+00  0.60884614467E+03  0.60884614467E+03  0.00000000000E+00 0. -1.
       21   -1    0    0  501  502  0.00000000000E+00  0.00000000000E+00 -0.16960715284E+02  0.16960715284E+02  0.00000000000E+00 0.  1.
      -24    2    1    2    0    0 -0.44157278837E+02  0.40850116959E+02  0.22775916477E+03  0.24949755370E+03  0.82196075551E+02 0.  0.
       11    1    3    3    0    0 -0.56840198622E+02  0.39196981223E+02  0.22633053006E+03  0.23662780976E+03  0.00000000000E+00 0. -1.
      -12    1    3    3    0    0  0.12682919784E+02  0.16531357369E+01  0.14286347169E+01  0.12869743944E+02  0.00000000000E+00 0.  1.
       21    1    1    2  503  502  0.80621150513E+00 -0.22377171614E+02  0.27115273732E+03  0.27207571509E+03  0.00000000000E+00 0. -1.
        2    1    1    2  501    0  0.43351067332E+02 -0.18472945346E+02  0.92973527293E+02  0.10423359116E+03  0.00000000000E+00 0. -1.
</event>
<event>
 7   2  0.9172800E+00  0.8040000E+02  0.7957747E-01  0.1297830E+00
       21   -1    0    0  503  502  0.00000000000E+00  0.00000000000E+00  0.22944231802E+02  0.22944231802E+02  0.00000000000E+00 0. -1.
       -4   -1    0    0    0  501  0.00000000000E+00  0.00000000000E+00 -0.32424124367E+03  0.32424124367E+03  0.00000000000E+00 0.  1.
      -24    2    1    2    0    0 -0.23844441807E+02 -0.13358601130E+02 -0.20714592261E+03  0.22399662595E+03  0.80734413682E+02 0.  0.
       11    1    3    3    0    0 -0.32006347693E+02  0.10352372413E+02 -0.29964299729E+02  0.45049274861E+02  0.00000000000E+00 0. -1.
      -12    1    3    3    0    0  0.81619058859E+01 -0.23710973543E+02 -0.17718162288E+03  0.17894735108E+03  0.00000000000E+00 0.  1.
       21    1    1    2  503  501  0.49894455126E+02  0.17472209607E+01 -0.68965941221E+02  0.85139946452E+02  0.00000000000E+00 0. -1.
       -3    1    1    2    0  502 -0.26050013319E+02  0.11611380169E+02 -0.25185148037E+02  0.38048903072E+02  0.00000000000E+00 0.  1.
</event>
<event>
 7   1  0.9172800E+00  0.8040000E+02  0.7957747E-01  0.1297830E+00
        2   -1    0    0  503    0  0.00000000000E+00  0.00000000000E+00  0.20613079081E+04  0.20613079081E+04  0.00000000000E+00 0. -1.
       21   -1    0    0  501  502  0.00000000000E+00  0.00000000000E+00 -0.50170064439E+02  0.50170064439E+02  0.00000000000E+00 0. -1.
       24    2    1    2    0    0  0.65445650489E+01 -0.22568900122E+02  0.10646524797E+04  0.10679702694E+04  0.80767613336E+02 0.  0.
      -11    1    3    3    0    0 -0.23110574153E+01 -0.13181746506E+02  0.10405018455E+04  0.10405879059E+04  0.00000000000E+00 0.  1.
       12    1    3    3    0    0  0.88556224641E+01 -0.93871536160E+01  0.24150634184E+02  0.27382363552E+02  0.00000000000E+00 0. -1.
       21    1    1    2  503  502 -0.43716229736E+02  0.24372693472E+02 -0.35153947453E+02  0.61163199319E+02  0.00000000000E+00 0. -1.
        1    1    1    2  501    0  0.37171664687E+02 -0.18037933496E+01  0.98163931151E+03  0.98234450384E+03  0.00000000000E+00 0. -1.
</event>
<event>
 7   1  0.9172800E+00  0.8040000E+02  0.7957747E-01  0.1297830E+00
       21   -1    0    0  501  502  0.00000000000E+00  0.00000000000E+00  0.94060811147E+02  0.94060811147E+02  0.00000000000E+00 0. -1.
        2   -1    0    0  503    0  0.00000000000E+00  0.00000000000E+00 -0.19824334765E+04  0.19824334765E+04  0.00000000000E+00 0. -1.
       24    2    1    2    0    0 -0.34156854269E+02  0.20608727506E+03 -0.91983206124E+03  0.94668904983E+03  0.80563518707E+02 0.  0.
      -11    1    3    3    0    0 -0.27989288846E+02  0.14214522774E+03 -0.77240854552E+03  0.78587761595E+03  0.00000000000E+00 0.  1.
       12    1    3    3    0    0 -0.61675654231E+01  0.63942047324E+02 -0.14742351572E+03  0.16081143388E+03  0.00000000000E+00 0. -1.
       21    1    1    2  503  502  0.39087837563E+02 -0.29651597073E+03 -0.20896678075E+03  0.36485160737E+03  0.00000000000E+00 0. -1.
        1    1    1    2  501    0 -0.49309832936E+01  0.90428695668E+02 -0.75957382335E+03  0.76495363043E+03  0.00000000000E+00 0. -1.
</event>
<event>
 7   1  0.9172800E+00  0.8040000E+02  0.7957747E-01  0.1297830E+00
       21   -1    0    0  503  502  0.00000000000E+00  0.00000000000E+00  0.35485656176E+02  0.35485656176E+02  0.00000000000E+00 0.  1.
        4   -1    0    0  502    0  0.00000000000E+00  0.00000000000E+00 -0.25913542532E+03  0.25913542532E+03  0.00000000000E+00 0. -1.
       24    2    1    2    0    0 -0.66785537738E+02 -0.14409750426E+02 -0.13089597224E+03  0.16761426475E+03  0.79327405359E+02 0.  0.
      -11    1    3    3    0    0 -0.45621243785E+02 -0.22046937253E+02 -0.20024121906E+02  0.54482389677E+02  0.00000000000E+00 0.  1.
       12    1    3    3    0    0 -0.21164293953E+02  0.76371868274E+01 -0.11087185034E+03  0.11313187508E+03  0.00000000000E+00 0. -1.
       21    1    1    2  503  501  0.20180802325E+02 -0.85800857067E+01 -0.14834531390E+01  0.21979155726E+02  0.00000000000E+00 0.  1.
        3    1    1    2  501    0  0.46604735413E+02  0.22989836133E+02 -0.91270343758E+02  0.10502766101E+03  0.00000000000E+00 0. -1.
</event>
<event>
 7   1  0.9172800E+00  0.8040000E+02  0.7957747E-01  0.1297830E+00
       21   -1    0    0  501  502  0.00000000000E+00  0.00000000000E+00  0.12763846600E+02  0.12763846600E+02  0.00000000000E+00 0. -1.
        2   -1    0    0  503    0  0.00000000000E+00  0.00000000000E+00 -0.18809075207E+04  0.18809075207E+04  0.00000000000E+00 0. -1.
       24    2    1    2    0    0  0.97957536418E+01 -0.41304417113E+01 -0.15207365837E+04  0.15228967329E+04  0.80384605927E+02 0.  0.
      -11    1    3    3    0    0 -0.27904834180E+02 -0.22216996180E+02 -0.92905186286E+03  0.92973632745E+03  0.00000000000E+00 0.  1.
       12    1    3    3    0    0  0.37700587822E+02  0.18086554468E+02 -0.59168472083E+03  0.59316040549E+03  0.00000000000E+00 0. -1.
       21    1    1    2  503  502 -0.67026186369E+01  0.29625405581E+02 -0.94030636756E+01  0.31796341911E+02  0.00000000000E+00 0. -1.
        1    1    1    2  501    0 -0.30931350050E+01 -0.25494963870E+02 -0.33800402679E+03  0.33897829251E+03  0.00000000000E+00 0. -1.
</event>
<event>
 7   2  0.9172800E+00  0.8040000E+02  0.7957747E-01  0.1297830E+00
        1   -1    0    0  502    0  0.00000000000E+00  0.00000000000E+00  0.57698238407E+03  0.57698238407E+03  0.00000000000E+00 0. -1.
       21   -1    0    0  503  502  0.00000000000E+00  0.00000000000E+00 -0.67674717805E+02  0.67674717805E+02  0.00000000000E+00 0.  1.
      -24    2    1    2    0    0 -0.44706109171E+02 -0.84108004262E+02  0.25154475476E+03  0.28097588570E+03  0.81239720082E+02 0.  0.
       11    1    3    3    0    0  0.12090540191E+02 -0.25868878701E+02  0.14020873075E+03  0.14308692542E+03  0.00000000000E+00 0. -1.
      -12    1    3    3    0    0 -0.56796649362E+02 -0.58239125561E+02  0.11133602401E+03  0.13788896028E+03  0.00000000000E+00 0.  1.
       21    1    1    2  503  501  0.10394115243E+03  0.68621504853E+02  0.30382630042E+02  0.12820209946E+03  0.00000000000E+00 0.  1.
        2    1    1    2  501    0 -0.59235043257E+02  0.15486499409E+02  0.22738028146E+03  0.23547911672E+03  0.00000000000E+00 0. -1.
</event>
<event>
 7   2  0.9172800E+00  0.8040000E+02  0.7957747E-01  0.1297830E+00
       21   -1    0    0  501  502  0.00000000000E+00  0.00000000000E+00  0.87178770700E+01  0.87178770700E+01  0.00000000000E+00 0.  1.
        1   -1    0    0  503    0  0.00000000000E+00  0.00000000000E+00 -0.70043780010E+03  0.70043780010E+03  0.00000000000E+00 0. -1.
      -24    2    1    2    0    0 -0.27044083394E+02 -0.28280663552E+02 -0.29035140479E+03  0.30343622512E+03  0.78983707635E+02 0.  0.
       11    1    3    3    0    0  0.10407014594E+01  0.20679249220E+02 -0.16074040008E+03  0.16206847511E+03  0.00000000000E+00 0. -1.
      -12    1    3    3    0    0 -0.28084784854E+02 -0.48959912772E+02 -0.12961100472E+03  0.14136775001E+03  0.00000000000E+00 0.  1.
       21    1    1    2  503  502 -0.11900298452E+02  0.34259385609E+01 -0.62391940061E+02  0.63609027211E+02  0.00000000000E+00 0.  1.
        2    1    1    2  501    0  0.38944381846E+02  0.24854724991E+02 -0.33897657818E+03  0.34211042484E+03  0.00000000000E+00 0. -1.
</event>
<event>
 7   1  0.9172800E+00  0.8040000E+02  0.7957747E-01  0.1297830E+00
        2   -1    0    0  503    0  0.00000000000E+00  0.00000000000E+00  0.18469154406E+04  0.18469154406E+04  0.00000000000E+00 0. -1.
       21   -1    0    0  501  502  0.00000000000E+00  0.00000000000E+00 -0.62533442281E+01  0.62533442281E+01  0.00000000000E+00 0.  1.
       24    2    1    2    0    0 -0.33014001894E+02 -0.76488410378E+01  0.16017820107E+04  0.16040625312E+04  0.78502007782E+02 0.  0.
      -11    1    3    3    0    0  0.14356455428E+02  0.21665250325E+02  0.31303200336E+03  0.31410909890E+03  0.00000000000E+00 0.  1.
       12    1    3    3    0    0 -0.47370457322E+02 -0.29314091363E+02  0.12887500073E+04  0.12899534323E+04  0.00000000000E+00 0. -1.
       21    1    1    2  503  502  0.51199735691E+02  0.61590691466E+01  0.15837581921E+03  0.16656004076E+03  0.00000000000E+00 0.  1.
        1    1    1    2  501    0 -0.18185733797E+02  0.14897718912E+01  0.80504266419E+02  0.82546212788E+02  0.00000000000E+00 0. -1.
</event>
<event>
 7   1  0.9172800E+00  0.8040000E+02  0.7957747E-01  0.1297830E+00
       21   -1    0    0  503  502  0.00000000000E+00  0.00000000000E+00  0.15708230908E+02  0.15708230908E+02  0.00000000000E+00 0. -1.
        2   -1    0    0  502    0  0.00000000000E+00  0.00000000000E+00 -0.17869257354E+04  0.17869257354E+04  0.00000000000E+00 0. -1.
       24    2    1    2    0    0  0.55445252868E+01 -0.87598934431E+02 -0.93255331838E+03  0.94010411982E+03  0.80223122615E+02 0.  0.
      -11    1    3    3    0    0  0.15341511119E+01  0.15052575240E+02 -0.83639279949E+02  0.84996839891E+02  0.00000000000E+00 0.  1.
       12    1    3    3    0    0  0.40103741749E+01 -0.10265150967E+03 -0.84891403843E+03  0.85510727993E+03  0.00000000000E+00 0. -1.
       21    1    1    2  503  501 -0.25262161871E+02  0.92049513937E+01 -0.81557314342E+01  0.28096688556E+02  0.00000000000E+00 0. -1.
        1    1    1    2  501    0  0.19717636584E+02  0.78393983037E+02 -0.83050845463E+03  0.83443315789E+03  0.00000000000E+00 0. -1.
</event>
<event>
 7   1  0.9172800E+00  0.8040000E+02  0.7957747E-01  0.1297830E+00
        2   -1    0    0  502    0  0.00000000000E+00  0.00000000000E+00  0.50708829381E+02  0.50708829381E+02  0.00000000000E+00 0. -1.
       21   -1    0    0  503  502  0.00000000000E+00  0.00000000000E+00 -0.31802667982E+03  0.31802667982E+03  0.00000000000E+00 0. -1.
       24    2    1    2    0    0  0.21179234883E+02 -0.34321740370E+02 -0.44945618851E+02  0.96145490677E+02  0.74815137982E+02 0.  0.
      -11    1    3    3    0    0  0.49215287442E+02 -0.19564930330E+02 -0.23862215364E+02  0.58089038027E+02  0.00000000000E+00 0.  1.
       12    1    3    3    0    0 -0.28036052559E+02 -0.14756810041E+02 -0.21083403487E+02  0.38056452650E+02  0.00000000000E+00 0. -1.
       21    1    1    2  503  501 -0.58090732162E+02  0.16684497167E+02 -0.22363853996E+03  0.23166161133E+03  0.00000000000E+00 0. -1.
        1    1    1    2  501    0  0.36911497278E+02  0.17637243203E+02  0.12663083646E+01  0.40928407201E+02  0.00000000000E+00 0. -1.
</event>
<event>
 7   1  0.9172800E+00  0.8040000E+02  0.7957747E-01  0.1297830E+00
       21   -1    0    0  501  502  0.00000000000E+00  0.00000000000E+00  0.84811629238E+02  0.84811629238E+02  0.00000000000E+00 0.  1.
        2   -1    0    0  503    0  0.00000000000E+00  0.00000000000E+00 -0.32746865029E+03  0.32746865029E+03  0.00000000000E+00 0. -1.
       24    2    1    2    0    0 -0.85370941588E+02  0.43694330748E+02 -0.20970045449E+01  0.12526136039E+03  0.80551963171E+02 0.  0.
      -11    1    3    3    0    0 -0.92515398202E+02  0.47773739077E+02 -0.19572814397E+02  0.10594585463E+03  0.00000000000E+00 0.  1.
       12    1    3    3    0    0  0.71444566142E+01 -0.40794083294E+01  0.17475809852E+02  0.19315505756E+02  0.00000000000E+00 0. -1.
       21    1    1    2  503  502  0.30751189012E+02 -0.48801245076E+01 -0.21184166645E+03  0.21411759125E+03  0.00000000000E+00 0. -1.
        1    1    1    2  501    0  0.54619752576E+02 -0.38814206240E+02 -0.28718350058E+02  0.72901327886E+02  0.00000000000E+00 0. -1.
</event>
<event>
 7   2  0.9172800E+00  0.8040000E+02  0.7957747E-01  0.1297830E+00
        1   -1    0    0  503    0  0.00000000000E+00  0.00000000000E+00  0.12213507157E+04  0.12213507157E+04  0.00000000000E+00 0. -1.
       21   -1    0    0  501  502  0.00000000000E+00  0.00000000000E+00 -0.66660087180E+01  0.66660087180E+01  0.00000000000E+00 0. -1.
      -24    2    1    2    0    0  0.19359532029E+01 -0.23987966196E+02  0.10092010517E+04  0.10128187972E+04  0.82073033059E+02 0.  0.
       11    1    3    3    0    0  0.20754870303E+01 -0.12369397273E+01  0.93940664773E+03  0.93940975483E+03  0.00000000000E+00 0. -1.
      -12    1    3    3    0    0 -0.13953382742E+00 -0.22751026469E+02  0.69794403943E+02  0.73409042337E+02  0.00000000000E+00 0.  1.
       21    1    1    2  503  502 -0.38899549733E+01 -0.12236101785E+02  0.13787533010E+03  0.13847187652E+03  0.00000000000E+00 0.  1.
        2    1    1    2  501    0  0.19540017704E+01  0.36224067981E+02  0.67608325229E+02  0.76726050754E+02  0.00000000000E+00 0. -1.
</event>
<event>
 7   1  0.9172800E+00  0.8040000E+02  0.7957747E-01  0.1297830E+00
        4   -1    0    0  502    0  0.00000000000E+00  0.00000000000E+00  0.42778712530E+02  0.42778712530E+02  0.00000000000E+00 0. -1.
       21   -1    0    0  503  502  0.00000000000E+00  0.00000000000E+00 -0.19241953415E+03  0.19241953415E+03  0.00000000000E+00 0.  1.
       24    2    1    2    0    0 -0.28936912589E+01 -0.30758215234E+02 -0.27881135478E+02  0.90006765332E+02  0.79808638859E+02 0.  0.
      -11    1    3    3    0    0 -0.20799863062E+02 -0.53008052709E+02 -0.20354426077E+02  0.60471403294E+02  0.00000000000E+00 0.  1.
       12    1    3    3    0    0  0.17906171803E+02  0.22249837475E+02 -0.75267094010E+01  0.29535362038E+02  0.00000000000E+00 0. -1.
       21    1    1    2  503  501 -0.23147153620E+02  0.41452199525E+02 -0.95702349639E+02  0.10683171483E+03  0.00000000000E+00 0.  1.
        3    1    1    2  501    0  0.26040844879E+02 -0.10693984291E+02 -0.26057336508E+02  0.38359766526E+02  0.00000000000E+00 0. -1.
</event>
<event>
 7   2  0.9172800E+00  0.8040000E+02  0.7957747E-01  0.1297830E+00
        3   -1    0    0  503    0  0.00000000000E+00  0.00000000000E+00  0.98349286067E+02  0.98349286067E+02  0.00000000000E+00 0. -1.
       21   -1    0    0  501  502  0.00000000000E+00  0.00000000000E+00 -0.40738040117E+02  0.40738040117E+02  0.00000000000E+00 0.  1.
      -24    2    1    2    0    0  0.75598241628E+01  0.72981704038E+00  0.64157740693E+02  0.10302710623E+03  0.80253880617E+02 0.  0.
       11    1    3    3    0    0  0.26046409762E+02  0.18804994624E+02  0.69554564491E+02  0.76615146843E+02  0.00000000000E+00 0. -1.
      -12    1    3    3    0    0 -0.18486585599E+02 -0.18075177583E+02 -0.53968237980E+01  0.26411959392E+02  0.00000000000E+00 0.  1.
       21    1    1    2  503  502 -0.21333440295E+02 -0.81958649123E+00 -0.63916737127E+01  0.22285441205E+02  0.00000000000E+00 0.  1.
        4    1    1    2  501    0  0.13773616132E+02  0.89769450846E-01 -0.15482102986E+00  0.13774778745E+02  0.00000000000E+00 0. -1.
</event>
<event>
 7   1  0.9172800E+00  0.8040000E+02  0.7957747E-01  0.1297830E+00
        2   -1    0    0  503    0  0.00000000000E+00  0.00000000000E+00  0.90028640044E+02  0.90028640044E+02  0.00000000000E+00 0. -1.
       21   -1    0    0  501  502  0.00000000000E+00  0.00000000000E+00 -0.54369738536E+02  0.54369738536E+02  0.00000000000E+00 0.  1.
       24    2    1    2    0    0  0.34532779183E+01 -0.15078961161E+02  0.55871925561E+02  0.99426954029E+02  0.80775905587E+02 0.  0.
      -11    1    3    3    0    0  0.36075447598E+01 -0.33921254648E+01 -0.21048747139E+02  0.21623382032E+02  0.00000000000E+00 0.  1.
       12    1    3    3    0    0 -0.15426684148E+00 -0.11686835696E+02  0.76920672700E+02  0.77803571997E+02  0.00000000000E+00 0. -1.
       21    1    1    2  503  502  0.15925016074E+02  0.12226892402E+02 -0.66624849153E+01  0.21154000567E+02  0.00000000000E+00 0.  1.
        1    1    1    2  501    0 -0.19378293993E+02  0.28520687591E+01 -0.13550539138E+02  0.23817423983E+02  0.00000000000E+00 0. -1.
</event>
<event>
 7   1  0.9172800E+00  0.8040000E+02  0.7957747E-01  0.1297830E+00
       21   -1    0    0  501  502  0.00000000000E+00  0.00000000000E+00  0.22007361544E+02  0.22007361544E+02  0.00000000000E+00 0. -1.
        2   -1    0    0  503    0  0.00000000000E+00  0.00000000000E+00 -0.11996856229E+04  0.11996856229E+04  0.00000000000E+00 0. -1.
       24    2    1    2    0    0 -0.15410656189E+02  0.29105086831E+02 -0.11625841868E+04  0.11658973522E+04  0.81425120468E+02 0.  0.
      -11    1    3    3    0    0  0.40323905448E+01  0.50481580800E+01 -0.57481143707E+01  0.86478258728E+01  0.00000000000E+00 0.  1.
       12    1    3    3    0    0 -0.19443046734E+02  0.24056928751E+02 -0.11568360724E+04  0.11572495264E+04  0.00000000000E+00 0. -1.
       21    1    1    2  503  502  0.19583997762E+02 -0.36579004891E+01 -0.21410790009E+02  0.29246113129E+02  0.00000000000E+00 0.  1.
        1    1    1    2  501    0 -0.41733415730E+01 -0.25447186341E+02  0.63167153689E+01  0.26549519122E+02  0.00000000000E+00 0. -1.
</event>
<event>
 7   1  0.9172800E+00  0.8040000E+02  0.7957747E-01  0.1297830E+00
       21   -1    0    0  501  502  0.00000000000E+00  0.00000000000E+00  0.68142924617E+02  0.68142924617E+02  0.00000000000E+00 0. -1.
        2   -1    0    0  503    0  0.00000000000E+00  0.00000000000E+00 -0.33234999378E+03  0.33234999378E+03  0.00000000000E+00 0. -1.
       24    2    1    2    0    0  0.33598150993E+02 -0.15058918899E+02 -0.75784776827E+02  0.11682024777E+03  0.80919905476E+02 0.  0.
      -11    1    3    3    0    0 -0.14366930568E+02 -0.10932207974E+01  0.10007444464E+02  0.17542883753E+02  0.00000000000E+00 0.  1.
       12    1    3    3    0    0  0.47965081561E+02 -0.13965698101E+02 -0.85792221291E+02  0.99277364019E+02  0.00000000000E+00 0. -1.
       21    1    1    2  503  502  0.37266497786E+02  0.86559656083E+02 -0.14743211807E+03  0.17497884260E+03  0.00000000000E+00 0. -1.
        1    1    1    2  501    0 -0.70864648779E+02 -0.71500737185E+02 -0.40990174267E+02  0.10869382803E+03  0.00000000000E+00 0. -1.
</event>
<event>
 7   1  0.9172800E+00  0.8040000E+02  0.7957747E-01  0.1297830E+00
        2   -1    0    0  502    0  0.00000000000E+00  0.00000000000E+00  0.15148879307E+04  0.15148879307E+04  0.00000000000E+00 0. -1.
       21   -1    0    0  503  502  0.00000000000E+00  0.00000000000E+00 -0.35496165726E+02  0.35496165726E+02  0.00000000000E+00 0. -1.
       24    2    1    2    0    0 -0.10006130790E+02  0.83022425049E+00  0.14066284748E+04  0.14089575319E+04  0.80354518385E+02 0.  0.
      -11    1    3    3    0    0  0.10830002410E+02 -0.35865852519E+02  0.78910440385E+03  0.78999329649E+03  0.00000000000E+00 0.  1.
       12    1    3    3    0    0 -0.20836133201E+02  0.36696076770E+02  0.61752407098E+03  0.61896423542E+03  0.00000000000E+00 0. -1.
       21    1    1    2  503  501 -0.15544041406E+01 -0.23732860042E+02 -0.28410003221E+02  0.37051222666E+02  0.00000000000E+00 0. -1.
        1    1    1    2  501    0  0.11560534931E+02  0.22902635792E+02  0.10117329337E+03  0.10437534184E+03  0.00000000000E+00 0. -1.
</event>
<event>
 7   1  0.9172800E+00  0.8040000E+02  0.7957747E-01  0.1297830E+00
       21   -1    0    0  503  502  0.00000000000E+00  0.00000000000E+00  0.15884715950E+02  0.15884715950E+02  0.00000000000E+00 0. -1.
        2   -1    0    0  502    0  0.00000000000E+00  0.00000000000E+00 -0.10785789082E+04  0.10785789082E+04  0.00000000000E+00 0. -1.
       24    2    1    2    0    0  0.40266479602E+02  0.71346510049E+02 -0.42080543536E+03  0.43622740379E+03  0.80656180856E+02 0.  0.
      -11    1    3    3    0    0 -0.23263959555E+02  0.75157735572E+01 -0.74806039523E+02  0.78699696413E+02  0.00000000000E+00 0.  1.
       12    1    3    3    0    0  0.63530439157E+02  0.63830736492E+02 -0.34599939584E+03  0.35752770737E+03  0.00000000000E+00 0. -1.
       21    1    1    2  503  501  0.29286323792E+02 -0.19445168359E+02 -0.57177459279E+02  0.67119782355E+02  0.00000000000E+00 0. -1.
        1    1    1    2  501    0 -0.69552803394E+02 -0.51901341690E+02 -0.58471129757E+03  0.59111643797E+03  0.00000000000E+00 0. -1.
</event>
<event>
 7   1  0.9172800E+00  0.8040000E+02  0.7957747E-01  0.1297830E+00
        2   -1    0    0  503    0  0.00000000000E+00  0.00000000000E+00  0.74297840331E+03  0.74297840331E+03  0.00000000000E+00 0. -1.
       21   -1    0    0  501  502  0.00000000000E+00  0.00000000000E+00 -0.35033502550E+02  0.35033502550E+02  0.00000000000E+00 0. -1.
       24    2    1    2    0    0  0.25456128574E+02 -0.64820974520E+02  0.40176099932E+03  0.41558770201E+03  0.80321007640E+02 0.  0.
      -11    1    3    3    0    0 -0.19812787204E+02  0.59207888596E+01  0.11233284818E+03  0.11422027428E+03  0.00000000000E+00 0.  1.
       12    1    3    3    0    0  0.45268915778E+02 -0.70741763379E+02  0.28942815114E+03  0.30136742773E+03  0.00000000000E+00 0. -1.
       21    1    1    2  503  502  0.76991952152E+01  0.16742131490E+02 -0.22220359110E+02  0.28867298674E+02  0.00000000000E+00 0. -1.
        1    1    1    2  501    0 -0.33155323789E+02  0.48078843030E+02  0.32840426055E+03  0.33355690518E+03  0.00000000000E+00 0. -1.
</event>
<event>
 7   1  0.9172800E+00  0.8040000E+02  0.7957747E-01  0.1297830E+00
       -3   -1    0    0    0  501  0.00000000000E+00  0.00000000000E+00  0.10494364399E+03  0.10494364399E+03  0.00000000000E+00 0.  1.
        2   -1    0    0  501    0  0.00000000000E+00  0.00000000000E+00 -0.61851346809E+03  0.61851346809E+03  0.00000000000E+00 0. -1.
       24    2    1    2    0    0  0.10643319314E+03  0.35424249071E+01 -0.27293020871E+02  0.13617148750E+03  0.80356652771E+02 0.  0.
      -11    1    3    3    0    0  0.60632425259E+02  0.36373133084E+02  0.55909484456E+01  0.70926402050E+02  0.00000000000E+00 0.  1.
       12    1    3    3    0    0  0.45800767879E+02 -0.32830708177E+02 -0.32883969317E+02  0.65245085453E+02  0.00000000000E+00 0. -1.
        2    1    1    2  502    0 -0.18544751741E+03  0.35561106618E+01 -0.47138945640E+03  0.50656830462E+03  0.00000000000E+00 0. -1.
       -4    1    1    2    0  502  0.79014324267E+02 -0.70985355689E+01 -0.14887346831E+02  0.80717319965E+02  0.00000000000E+00 0.  1.
</event>
<event>
 7   2  0.9172800E+00  0.8040000E+02  0.7957747E-01  0.1297830E+00
        1   -1    0    0  502    0  0.00000000000E+00  0.00000000000E+00  0.12877091017E+04  0.12877091017E+04  0.00000000000E+00 0. -1.
       21   -1    0    0  503  502  0.00000000000E+00  0.00000000000E+00 -0.26463607979E+02  0.26463607979E+02  0.00000000000E+00 0. -1.
      -24    2    1    2    0    0  0.55793683018E+02  0.29917603610E+02  0.74464546516E+03  0.75162423256E+03  0.80212967214E+02 0.  0.
       11    1    3    3    0    0  0.68889630158E+02  0.32881097074E+02  0.43212134825E+03  0.43881181308E+03  0.00000000000E+00 0. -1.
      -12    1    3    3    0    0 -0.13095947140E+02 -0.29634934635E+01  0.31252411691E+03  0.31281241948E+03  0.00000000000E+00 0.  1.
       21    1    1    2  503  501 -0.40855177816E+01  0.34600107246E+02 -0.43202290591E+01  0.35107310579E+02  0.00000000000E+00 0. -1.
        2    1    1    2  501    0 -0.51708165236E+02 -0.64517710856E+02  0.52092025757E+03  0.52744116650E+03  0.00000000000E+00 0. -1.
</event>
<event>
 7   1  0.9172800E+00  0.8040000E+02  0.7957747E-01  0.1297830E+00
        3   -1    0    0  502    0  0.00000000000E+00  0.00000000000E+00  0.94455146068E+02  0.94455146068E+02  0.00000000000E+00 0. -1.
        2   -1    0    0  501    0  0.00000000000E+00  0.00000000000E+00 -0.39484998673E+03  0.39484998673E+03  0.00000000000E+00 0. -1.
       24    2    1    2    0    0  0.54396192476E+02 -0.88829803006E+02 -0.14679079052E+03  0.19714040160E+03  0.80418418944E+02 0.  0.
      -11    1    3    3    0    0  0.66561036537E+02 -0.32786209396E+02 -0.80179447287E+02  0.10924308161E+03  0.00000000000E+00 0.  1.
       12    1    3    3    0    0 -0.12164844061E+02 -0.56043593610E+02 -0.66611343230E+02  0.87897319997E+02  0.00000000000E+00 0. -1.
        3    1    1    2  501    0 -0.73212025476E+02  0.11600425442E+03 -0.21977569359E+01  0.13719263047E+03  0.00000000000E+00 0. -1.
        1    1    1    2  502    0  0.18815832999E+02 -0.27174451417E+02 -0.15140629321E+03  0.15497210073E+03  0.00000000000E+00 0. -1.
</event>
<event>
 7   1  0.9172800E+00  0.8040000E+02  0.7957747E-01  0.1297830E+00
       21   -1    0    0  503  502  0.00000000000E+00  0.00000000000E+00  0.78996865506E+02  0.78996865506E+02  0.00000000000E+00 0. -1.
        4   -1    0    0  502    0  0.00000000000E+00  0.00000000000E+00 -0.18332212474E+03  0.18332212474E+03  0.00000000000E+00 0. -1.
       24    2    1    2    0    0  0.22637654405E+02  0.49583742821E+02 -0.65443264870E+01  0.97138186814E+02  0.80137308285E+02 0.  0.
      -11    1    3    3    0    0  0.20249924348E+02 -0.32882883673E+01 -0.32310723012E+02  0.38273425481E+02  0.00000000000E+00 0.  1.
       12    1    3    3    0    0  0.23877300567E+01  0.52872031189E+02  0.25766396525E+02  0.58864761333E+02  0.00000000000E+00 0. -1.
       21    1    1    2  503  501 -0.37842299781E+02 -0.98214696503E+01  0.17095505361E+02  0.42670331875E+02  0.00000000000E+00 0.  1.
        3    1    1    2  501    0  0.15204645376E+02 -0.39762273171E+02 -0.11487643811E+03  0.12251047156E+03  0.00000000000E+00 0. -1.
</event>
<event>
 7   1  0.9172800E+00  0.8040000E+02  0.7957747E-01  0.1297830E+00
        2   -1    0    0  501    0  0.00000000000E+00  0.00000000000E+00  0.30713442359E+03  0.30713442359E+03  0.00000000000E+00 0. -1.
        3   -1    0    0  502    0  0.00000000000E+00  0.00000000000E+00 -0.96027304081E+02  0.96027304081E+02  0.00000000000E+00 0. -1.
       24    2    1    2    0    0 -0.30186193541E+02 -0.32578893486E+02  0.14987396802E+03  0.17608404738E+03  0.81060439631E+02 0.  0.
      -11    1    3    3    0    0  0.22807515519E+01 -0.49416658203E+02  0.52822674975E+02  0.72370179820E+02  0.00000000000E+00 0.  1.
       12    1    3    3    0    0 -0.32466945093E+02  0.16837764718E+02  0.97051293040E+02  0.10371386756E+03  0.00000000000E+00 0. -1.
        3    1    1    2  501    0 -0.35572708015E+02 -0.57577598111E+02 -0.38111482691E+02  0.77672919815E+02  0.00000000000E+00 0. -1.
        1    1    1    2  502    0  0.65758901555E+02  0.90156491597E+02  0.99344634189E+02  0.14940476048E+03  0.00000000000E+00 0. -1.
</event>
<event>
 7   1  0.9172800E+00  0.8040000E+02  0.7957747E-01  0.1297830E+00
        2   -1    0    0  502    0  0.00000000000E+00  0.00000000000E+00  0.28881455743E+03  0.28881455743E+03  0.00000000000E+00 0. -1.
       21   -1    0    0  503  502  0.00000000000E+00  0.00000000000E+00 -0.63943321247E+02  0.63943321247E+02  0.00000000000E+00 0. -1.
       24    2    1    2    0    0 -0.67507826321E+02  0.31539012243E+02  0.17466710562E+03  0.20610692308E+03  0.80121470566E+02 0.  0.
      -11    1    3    3    0    0  0.14762634416E+02 -0.93520829489E+01  0.25355809690E+02  0.30794705964E+02  0.00000000000E+00 0.  1.
       12    1    3    3    0    0 -0.82270460737E+02  0.40891095192E+02  0.14931129593E+03  0.17531221711E+03  0.00000000000E+00 0. -1.
       21    1    1    2  503  501  0.67810979744E+02  0.54074923871E+00 -0.18955675043E+02  0.70412633809E+02  0.00000000000E+00 0. -1.
        1    1    1    2  501    0 -0.30315342269E+00 -0.32079761482E+02  0.69159805601E+02  0.76238321791E+02  0.00000000000E+00 0. -1.
</event>
<event>
 7   1  0.9172800E+00  0.8040000E+02  0.7957747E-01  0.1297830E+00
       -2   -1    0    0    0  501  0.00000000000E+00  0.00000000000E+00  0.26761243754E+03  0.26761243754E+03  0.00000000000E+00 0.  1.
       -1   -1    0    0    0  502  0.00000000000E+00  0.00000000000E+00 -0.17366721366E+03  0.17366721366E+03  0.00000000000E+00 0.  1.
       24    2    1    2    0    0 -0.18531262850E+02 -0.19699204897E+02 -0.15982159305E+03  0.18028504423E+03  0.78919510831E+02 0.  0.
      -11    1    3    3    0    0 -0.49090300531E+02 -0.17808450249E+02 -0.90147855023E+02  0.10418077688E+03  0.00000000000E+00 0.  1.
       12    1    3    3    0    0  0.30559037681E+02 -0.18907546484E+01 -0.69673738032E+02  0.76104267347E+02  0.00000000000E+00 0. -1.
       -2    1    1    2    0  502  0.90635903786E+01  0.30263040938E+02  0.23671459006E+03  0.23881331090E+03  0.00000000000E+00 0.  1.
       -2    1    1    2    0  501  0.94676724713E+01 -0.10563836041E+02  0.17052226870E+02  0.22181296065E+02  0.00000000000E+00 0.  1.
</event>
<event>
 7   1  0.9172800E+00  0.8040000E+02  0.7957747E-01  0.1297830E+00
       -2   -1    0    0    0  501  0.00000000000E+00  0.00000000000E+00  0.17346716195E+02  0.17346716195E+02  0.00000000000E+00 0. -1.
        2   -1    0    0  501    0  0.00000000000E+00  0.00000000000E+00 -0.14246133542E+04  0.14246133542E+04  0.00000000000E+00 0. -1.
       24    2    1    2    0    0  0.45746556272E+02  0.33287755354E+02 -0.10926301232E+04  0.10970287927E+04  0.80192042434E+02 0.  0.
      -11    1    3    3    0    0  0.14688243771E+02  0.55970415356E+02 -0.75529207941E+03  0.75750548323E+03  0.00000000000E+00 0.  1.
       12    1    3    3    0    0  0.31058312501E+02 -0.22682660002E+02 -0.33733804381E+03  0.33952330943E+03  0.00000000000E+00 0. -1.
        1    1    1    2  502    0  0.33979461324E+02  0.15622741980E+02 -0.15910658808E+03  0.16344289593E+03  0.00000000000E+00 0. -1.
       -2    1    1    2    0  502 -0.79726017596E+02 -0.48910497334E+02 -0.15552992666E+03  0.18148838177E+03  0.00000000000E+00 0. -1.
</event>
<event>
 7   1  0.9172800E+00  0.8040000E+02  0.7957747E-01  0.1297830E+00
        2   -1    0    0  503    0  0.00000000000E+00  0.00000000000E+00  0.74727771469E+03  0.74727771469E+03  0.00000000000E+00 0. -1.
       21   -1    0    0  501  502  0.00000000000E+00  0.00000000000E+00 -0.90417202638E+02  0.90417202638E+02  0.00000000000E+00 0.  1.
       24    2    1    2    0    0 -0.63838612120E+02  0.84634293335E+01  0.65929366753E+03  0.66738931390E+03  0.81199496481E+02 0.  0.
      -11    1    3    3    0    0  0.50654762377E+01  0.10221857396E+02  0.12460335425E+02  0.16893944981E+02  0.00000000000E+00 0.  1.
       12    1    3    3    0    0 -0.68904088358E+02 -0.17584280624E+01  0.64683333210E+03  0.65049536892E+03  0.00000000000E+00 0. -1.
       21    1    1    2  503  502 -0.76413866417E+01 -0.14361560724E+02 -0.69941889785E+02  0.71808865489E+02  0.00000000000E+00 0.  1.
        1    1    1    2  501    0  0.71479998762E+02  0.58981313902E+01  0.67508734304E+02  0.98496737937E+02  0.00000000000E+00 0. -1.
</event>
<event>
 7   2  0.9172800E+00  0.8040000E+02  0.7957747E-01  0.1297830E+00
        1   -1    0    0  503    0  0.00000000000E+00  0.00000000000E+00  0.24329666266E+03  0.24329666266E+03  0.00000000000E+00 0. -1.
       21   -1    0    0  501  502  0.00000000000E+00  0.00000000000E+00 -0.85426294523E+02  0.85426294523E+02  0.00000000000E+00 0. -1.
      -24    2    1    2    0    0  0.47064855850E+02 -0.70115783422E+02  0.84237148661E+02  0.14367515937E+03  0.80095758095E+02 0.  0.
       11    1    3    3    0    0  0.39573371802E+02 -0.31555492164E+02  0.90699112150E+02  0.10386592216E+03  0.00000000000E+00 0. -1.
      -12    1    3    3    0    0  0.74914840476E+01 -0.38560291258E+02 -0.64619634889E+01  0.39809237210E+02  0.00000000000E+00 0.  1.
       21    1    1    2  503  502 -0.87012605571E+01  0.32370008350E+02  0.11332306288E+03  0.11817633417E+03  0.00000000000E+00 0. -1.
        2    1    1    2  501    0 -0.38363595292E+02  0.37745775071E+02 -0.39689843411E+02  0.66871463641E+02  0.00000000000E+00 0. -1.
</event>
<event>
 7   2  0.9172800E+00  0.8040000E+02  0.7957747E-01  0.1297830E+00
        2   -1    0    0  501    0  0.00000000000E+00  0.00000000000E+00  0.46496112391E+03  0.46496112391E+03  0.00000000000E+00 0.  1.
       -2   -1    0    0    0  501  0.00000000000E+00  0.00000000000E+00 -0.52908603618E+02  0.52908603618E+02  0.00000000000E+00 0.  1.
      -24    2    1    2    0    0  0.24273531245E+02 -0.19189691140E+02 -0.52217836901E+01  0.86705116341E+02  0.80827356815E+02 0.  0.
       11    1    3    3    0    0  0.16045186655E+02 -0.12620870549E+02  0.37504665921E+02  0.42700519365E+02  0.00000000000E+00 0. -1.
      -12    1    3    3    0    0  0.82283445905E+01 -0.65688205909E+01 -0.42726449611E+02  0.44004596976E+02  0.00000000000E+00 0.  1.
        2    1    1    2  502    0  0.12962775340E+02  0.32383218012E+02  0.35942456090E+03  0.36111316970E+03  0.00000000000E+00 0.  1.
       -1    1    1    2    0  502 -0.37236306585E+02 -0.13193526872E+02  0.57849743082E+02  0.70051441485E+02  0.00000000000E+00 0.  1.
</event>
<event>
 7   1  0.9172800E+00  0.8040000E+02  0.7957747E-01  0.1297830E+00
        2   -1    0    0  502    0  0.00000000000E+00  0.00000000000E+00  0.21303316324E+03  0.21303316324E+03  0.00000000000E+00 0. -1.
       21   -1    0    0  503  502  0.00000000000E+00  0.00000000000E+00 -0.11267279010E+03  0.11267279010E+03  0.00000000000E+00 0. -1.
       24    2    1    2    0    0  0.47029651109E+01 -0.21262599611E+02  0.93357968155E+02  0.13129005262E+03  0.89705917727E+02 0.  0.
      -11    1    3    3    0    0 -0.28749045795E+01  0.16137389230E+02 -0.11288839528E+02  0.19902721055E+02  0.00000000000E+00 0.  1.
       12    1    3    3    0    0  0.75778696904E+01 -0.37399988841E+02  0.10464680768E+03  0.11138733156E+03  0.00000000000E+00 0. -1.
       21    1    1    2  503  501 -0.70095899709E+02  0.30955473009E+02 -0.62213552970E+02  0.98702596918E+02  0.00000000000E+00 0. -1.
        1    1    1    2  501    0  0.65392934598E+02 -0.96928733984E+01  0.69215957955E+02  0.95713303808E+02  0.00000000000E+00 0. -1.
</event>
<event>
 7   2  0.9172800E+00  0.8040000E+02  0.7957747E-01  0.1297830E+00
        1   -1    0    0  502    0  0.00000000000E+00  0.00000000000E+00  0.82702998609E+03  0.82702998609E+03  0.00000000000E+00 0. -1.
       21   -1    0    0  503  502  0.00000000000E+00  0.00000000000E+00 -0.55901974876E+03  0.55901974876E+03  0.00000000000E+00 0. -1.
      -24    2    1    2    0    0 -0.25067316943E+02 -0.15978471149E+02  0.61849536126E+03  0.62452501032E+03  0.81309868368E+02 0.  0.
       11    1    3    3    0    0  0.27039944983E+02  0.64597561127E+01  0.14482641845E+03  0.14747060234E+03  0.00000000000E+00 0. -1.
      -12    1    3    3    0    0 -0.52107261926E+02 -0.22438227262E+02  0.47366894281E+03  0.47705440798E+03  0.00000000000E+00 0.  1.
       21    1    1    2  503  501  0.34441371987E+01  0.18992133541E+02 -0.55525695470E+03  0.55559234063E+03  0.00000000000E+00 0. -1.
        2    1    1    2  501    0  0.21623179744E+02 -0.30136623919E+01  0.20477183078E+03  0.20593238391E+03  0.00000000000E+00 0. -1.
</event>
<event>
 7   1  0.9172800E+00  0.8040000E+02  0.7957747E-01  0.1297830E+00
        2   -1    0    0  503    0  0.00000000000E+00  0.00000000000E+00  0.95767346712E+03  0.95767346712E+03  0.00000000000E+00 0. -1.
       21   -1    0    0  501  502  0.00000000000E+00  0.00000000000E+00 -0.23284997150E+02  0.23284997150E+02  0.00000000000E+00 0. -1.
       24    2    1    2    0    0 -0.79598483913E+01 -0.78645958817E+01  0.68262549185E+02  0.10731291539E+03  0.82043129708E+02 0.  0.
      -11    1    3    3    0    0  0.18079327778E+01 -0.39031505216E+02  0.63139690217E+02  0.74251919175E+02  0.00000000000E+00 0.  1.
       12    1    3    3    0    0 -0.97677811691E+01  0.31166909334E+02  0.51228589680E+01  0.33060996211E+02  0.00000000000E+00 0. -1.
       21    1    1    2  503  502  0.19853469800E+01 -0.14388884843E+02  0.11028089219E+02  0.18237334276E+02  0.00000000000E+00 0.  1.
        1    1    1    2  501    0  0.59745014112E+01  0.22253480725E+02  0.85509783157E+03  0.85540821461E+03  0.00000000000E+00 0. -1.
</event>
<event>
 7   2  0.9172800E+00  0.8040000E+02  0.7957747E-01  0.1297830E+00
        3   -1    0    0  502    0  0.00000000000E+00  0.00000000000E+00  0.48951474109E+02  0.48951474109E+02  0.00000000000E+00 0. -1.
       -4   -1    0    0    0  501  0.00000000000E+00  0.00000000000E+00 -0.18715382318E+03  0.18715382318E+03  0.00000000000E+00 0.  1.
      -24    2    1    2    0    0  0.45389374798E+01  0.35283659534E+01 -0.32544250685E+02  0.86437600942E+02  0.79870390535E+02 0.  0.
       11    1    3    3    0    0  0.14011654837E+02 -0.10036505944E+02  0.22852266153E+02  0.28623137340E+02  0.00000000000E+00 0. -1.
      -12    1    3    3    0    0 -0.94727173573E+01  0.13564871898E+02 -0.55396516839E+02  0.57814463602E+02  0.00000000000E+00 0.  1.
        1    1    1    2  502    0  0.34267430319E+02  0.17088619061E+02 -0.34905349185E+01  0.38450767431E+02  0.00000000000E+00 0. -1.
       -1    1    1    2    0  501 -0.38806367798E+02 -0.20616985015E+02 -0.10216756347E+03  0.11121692892E+03  0.00000000000E+00 0.  1.
</event>
<event>
 7   2  0.9172800E+00  0.8040000E+02  0.7957747E-01  0.1297830E+00
        1   -1    0    0  502    0  0.00000000000E+00  0.00000000000E+00  0.59312431676E+02  0.59312431676E+02  0.00000000000E+00 0. -1.
       -2   -1    0    0    0  501  0.00000000000E+00  0.00000000000E+00 -0.34214428562E+03  0.34214428562E+03  0.00000000000E+00 0.  1.
      -24    2    1    2    0    0  0.13646767406E+02  0.73400844226E+02 -0.12383215862E+02  0.10729941225E+03  0.76065114472E+02 0.  0.
       11    1    3    3    0    0 -0.16877157588E+02  0.53957339258E+02  0.18746668210E+02  0.59562324308E+02  0.00000000000E+00 0. -1.
      -12    1    3    3    0    0  0.30523924994E+02  0.19443504968E+02 -0.31129884072E+02  0.47737087938E+02  0.00000000000E+00 0.  1.
       21    1    1    2  502  503 -0.79742311407E+01 -0.17097606289E+02 -0.10667192035E+01  0.18895882963E+02  0.00000000000E+00 0. -1.
       21    1    1    2  503  501 -0.56725362649E+01 -0.56303237937E+02 -0.26938191888E+03  0.27526142208E+03  0.00000000000E+00 0.  1.
</event>
<event>
 7   2  0.9172800E+00  0.8040000E+02  0.7957747E-01  0.1297830E+00
        1   -1    0    0  502    0  0.00000000000E+00  0.00000000000E+00  0.69659186251E+03  0.69659186251E+03  0.00000000000E+00 0. -1.
       21   -1    0    0  503  502  0.00000000000E+00  0.00000000000E+00 -0.27278322616E+03  0.27278322616E+03  0.00000000000E+00 0. -1.
      -24    2    1    2    0    0 -0.27144307187E+02 -0.10487711484E+02  0.62810358269E+03  0.63379984308E+03  0.79632436891E+02 0.  0.
       11    1    3    3    0    0 -0.15164298502E+01  0.10130141913E+01  0.56165344277E+03  0.56165640345E+03  0.00000000000E+00 0. -1.
      -12    1    3    3    0    0 -0.25627877337E+02 -0.11500725675E+02  0.66450139917E+02  0.72143439639E+02  0.00000000000E+00 0.  1.
       21    1    1    2  503  501  0.96828568068E+01  0.14770417003E+02 -0.26840829132E+03  0.26898872426E+03  0.00000000000E+00 0. -1.
        2    1    1    2  501    0  0.17461450380E+02 -0.42827055189E+01  0.64113344989E+02  0.66586521321E+02  0.00000000000E+00 0. -1.
</event>
<event>
 7   1  0.9172800E+00  0.8040000E+02  0.7957747E-01  0.1297830E+00
       -1   -1    0    0    0  501  0.00000000000E+00  0.00000000000E+00  0.23895743019E+03  0.23895743019E+03  0.00000000000E+00 0.  1.
       -3   -1    0    0    0  502  0.00000000000E+00  0.00000000000E+00 -0.15025120586E+03  0.15025120586E+03  0.00000000000E+00 0. -1.
       24    2    1    2    0    0  0.75084609016E+01  0.16454053264E+02  0.13087293548E+03  0.15609533208E+03  0.83131910860E+02 0.  0.
      -11    1    3    3    0    0  0.98853906919E+00  0.26705763348E+02  0.21610172206E+01  0.26811284954E+02  0.00000000000E+00 0.  1.
       12    1    3    3    0    0  0.65199218325E+01 -0.10251710083E+02  0.12871191825E+03  0.12928404713E+03  0.00000000000E+00 0. -1.
       -2    1    1    2    0  502 -0.61668868680E+00 -0.40976455571E+02  0.89800840332E+02  0.98709883702E+02  0.00000000000E+00 0.  1.
       -3    1    1    2    0  501 -0.68917722148E+01  0.24522402306E+02 -0.13196755147E+03  0.13440342027E+03  0.00000000000E+00 0. -1.
</event>
<event>
 7   1  0.9172800E+00  0.8040000E+02  0.7957747E-01  0.1297830E+00
        2   -1    0    0  502    0  0.00000000000E+00  0.00000000000E+00  0.51297532957E+02  0.51297532957E+02  0.00000000000E+00 0. -1.
       -1   -1    0    0    0  501  0.00000000000E+00  0.00000000000E+00 -0.17079740806E+03  0.17079740806E+03  0.00000000000E+00 0.  1.
       24    2    1    2    0    0  0.22669355011E+02 -0.42018502030E+01  0.91136555761E+01  0.84013636151E+02  0.80272517960E+02 0.  0.
      -11    1    3    3    0    0  0.10169720261E+02  0.93189404163E+01 -0.34238756586E+02  0.36912847536E+02  0.00000000000E+00 0.  1.
       12    1    3    3    0    0  0.12499634750E+02 -0.13520790619E+02  0.43352412162E+02  0.47100788615E+02  0.00000000000E+00 0. -1.
       21    1    1    2  502  503 -0.44735753604E+01  0.16639613950E+02 -0.16620796449E+02  0.23940353037E+02  0.00000000000E+00 0.  1.
       21    1    1    2  503  501 -0.18195779651E+02 -0.12437763747E+02 -0.11199273423E+03  0.11414095183E+03  0.00000000000E+00 0.  1.
</event>
<event>
 7   1  0.9172800E+00  0.8040000E+02  0.7957747E-01  0.1297830E+00
       -1   -1    0    0    0  501  0.00000000000E+00  0.00000000000E+00  0.11832524482E+03  0.11832524482E+03  0.00000000000E+00 0.  1.
        2   -1    0    0  503    0  0.00000000000E+00  0.00000000000E+00 -0.83498674956E+02  0.83498674956E+02  0.00000000000E+00 0. -1.
       24    2    1    2    0    0 -0.12641545770E+02 -0.65383095965E+02  0.56781449394E+02  0.11929941113E+03  0.81076868366E+02 0.  0.
      -11    1    3    3    0    0  0.16436554658E+02  0.21202596048E+01  0.40862492456E+02  0.44095341245E+02  0.00000000000E+00 0.  1.
       12    1    3    3    0    0 -0.29078100428E+02 -0.67503355570E+02  0.15918956939E+02  0.75204069888E+02  0.00000000000E+00 0. -1.
       21    1    1    2  502  501 -0.10751701202E+02  0.11917683217E+02  0.68406940060E+01  0.17447789157E+02  0.00000000000E+00 0. -1.
       21    1    1    2  503  502  0.23393246971E+02  0.53465412748E+02 -0.28795573534E+02  0.65076719488E+02  0.00000000000E+00 0.  1.
</event>
<event>
 7   2  0.9172800E+00  0.8040000E+02  0.7957747E-01  0.1297830E+00
        1   -1    0    0  503    0  0.00000000000E+00  0.00000000000E+00  0.15535844217E+03  0.15535844217E+03  0.00000000000E+00 0. -1.
       21   -1    0    0  501  502  0.00000000000E+00  0.00000000000E+00 -0.81438494550E+02  0.81438494550E+02  0.00000000000E+00 0.  1.
      -24    2    1    2    0    0 -0.11499950900E+01 -0.38504628373E+02 -0.26010977295E+02  0.87375155686E+02  0.73985931071E+02 0.  0.
       11    1    3    3    0    0 -0.23713584783E+02 -0.16766831528E+02  0.17386970637E+02  0.33849187445E+02  0.00000000000E+00 0. -1.
      -12    1    3    3    0    0  0.22563589693E+02 -0.21737796845E+02 -0.43397947932E+02  0.53525968242E+02  0.00000000000E+00 0.  1.
       21    1    1    2  503  502 -0.29030486690E+02 -0.80824752529E+01  0.87492295329E+02  0.92536464734E+02  0.00000000000E+00 0. -1.
        2    1    1    2  501    0  0.30180481780E+02  0.46587103626E+02  0.12438629588E+02  0.56885316302E+02  0.00000000000E+00 0. -1.
</event>
<event>
 7   1  0.9172800E+00  0.8040000E+02  0.7957747E-01  0.1297830E+00
       -1   -1    0    0    0  501  0.00000000000E+00  0.00000000000E+00  0.51365476887E+03  0.51365476887E+03  0.00000000000E+00 0.  1.
       21   -1    0    0  501  502  0.00000000000E+00  0.00000000000E+00 -0.18551869545E+02  0.18551869545E+02  0.00000000000E+00 0. -1.
       24    2    1    2    0    0  0.26701807902E+02  0.22182729244E+01  0.34881411498E+03  0.35919856798E+03  0.81451931556E+02 0.  0.
      -11    1    3    3    0    0  0.18584862922E+02 -0.87916501137E+01  0.34412497565E+03  0.34473858082E+03  0.00000000000E+00 0.  1.
       12    1    3    3    0    0  0.81169449807E+01  0.11009923038E+02  0.46891393303E+01  0.14459987164E+02  0.00000000000E+00 0. -1.
       21    1    1    2  503  502  0.31486573263E+02 -0.78563779039E+01  0.38208585939E+02  0.50130060932E+02  0.00000000000E+00 0. -1.
       -2    1    1    2    0  503 -0.58188381165E+02  0.56381049795E+01  0.10808019841E+03  0.12287800950E+03  0.00000000000E+00 0.  1.
</event>
<event>
 7   1  0.9172800E+00  0.8040000E+02  0.7957747E-01  0.1297830E+00
        2   -1    0    0  503    0  0.00000000000E+00  0.00000000000E+00  0.69052878991E+03  0.69052878991E+03  0.00000000000E+00 0. -1.
       21   -1    0    0  501  502  0.00000000000E+00  0.00000000000E+00 -0.14371718186E+02  0.14371718186E+02  0.00000000000E+00 0. -1.
       24    2    1    2    0    0 -0.29435948124E+01 -0.37446478869E+02  0.47470641283E+03  0.48326378832E+03  0.82382080511E+02 0.  0.
      -11    1    3    3    0    0  0.14282980027E+02  0.86462208846E+01  0.20679658834E+02  0.26578354793E+02  0.00000000000E+00 0.  1.
       12    1    3    3    0    0 -0.17226574839E+02 -0.46092699754E+02  0.45402675399E+03  0.45668543352E+03  0.00000000000E+00 0. -1.
       21    1    1    2  503  502 -0.95953948620E+01 -0.22601003620E+02  0.10095889679E+03  0.10390176037E+03  0.00000000000E+00 0.  1.
        1    1    1    2  501    0  0.12538989674E+02  0.60047482489E+02  0.10049176210E+03  0.11773495941E+03  0.00000000000E+00 0. -1.
</event>
<event>
 7   2  0.9172800E+00  0.8040000E+02  0.7957747E-01  0.1297830E+00
        1   -1    0    0  502    0  0.00000000000E+00  0.00000000000E+00  0.23635839564E+03  0.23635839564E+03  0.00000000000E+00 0. -1.
       21   -1    0    0  503  502  0.00000000000E+00  0.00000000000E+00 -0.23126704923E+03  0.23126704923E+03  0.00000000000E+00 0.  1.
      -24    2    1    2    0    0 -0.67469557593E+02  0.47679892418E+02  0.18374179294E+02  0.11271482785E+03  0.74441309833E+02 0.  0.
       11    1    3    3    0    0 -0.24585806161E+02 -0.91362676892E+01  0.30800369505E+02  0.40454863905E+02  0.00000000000E+00 0. -1.
      -12    1    3    3    0    0 -0.42883751431E+02  0.56816160107E+02 -0.12426190211E+02  0.72259963945E+02  0.00000000000E+00 0.  1.
       21    1    1    2  503  501  0.26558387666E+02 -0.64506437221E-01 -0.17730621276E+03  0.17928425809E+03  0.00000000000E+00 0.  1.
        2    1    1    2  501    0  0.40911169927E+02 -0.47615385981E+02  0.16402337987E+03  0.17562635893E+03  0.00000000000E+00 0. -1.
</event>
<event>
 7   1  0.9172800E+00  0.8040000E+02  0.7957747E-01  0.1297830E+00
       21   -1    0    0  503  502  0.00000000000E+00  0.00000000000E+00  0.80262424460E+02  0.80262424460E+02  0.00000000000E+00 0. -1.
       -3   -1    0    0    0  501  0.00000000000E+00  0.00000000000E+00 -0.52448289492E+02  0.52448289492E+02  0.00000000000E+00 0.  1.
       24    2    1    2    0    0  0.19506652591E+01  0.19418830540E+01 -0.75277243952E+01  0.81251326347E+02  0.80855027016E+02 0.  0.
      -11    1    3    3    0    0  0.31688846076E+01 -0.36105908046E+02 -0.19741904396E+02  0.41272523725E+02  0.00000000000E+00 0.  1.
       12    1    3    3    0    0 -0.12182193485E+01  0.38047791100E+02  0.12214180001E+02  0.39978802621E+02  0.00000000000E+00 0. -1.
       21    1    1    2  503  501 -0.17442836608E+02 -0.97335632122E+01  0.20666099894E+02  0.28741650728E+02  0.00000000000E+00 0. -1.
       -4    1    1    2    0  502  0.15492171349E+02  0.77916801582E+01  0.14675759470E+02  0.22717736877E+02  0.00000000000E+00 0.  1.
</event>
<event>
 7   1  0.9172800E+00  0.8040000E+02  0.7957747E-01  0.1297830E+00
       21   -1    0    0  503  502  0.00000000000E+00  0.00000000000E+00  0.62883058886E+01  0.62883058886E+01  0.00000000000E+00 0.  1.
        2   -1    0    0  502    0  0.00000000000E+00  0.00000000000E+00 -0.94691954687E+03  0.94691954687E+03  0.00000000000E+00 0. -1.
       24    2    1    2    0    0  0.13000645792E+02 -0.20220957746E+02 -0.61180153748E+03  0.61743261056E+03  0.79649252344E+02 0.  0.
      -11    1    3    3    0    0 -0.46624983072E+01 -0.26356561231E+02 -0.64782359617E+02  0.70093946443E+02  0.00000000000E+00 0.  1.
       12    1    3    3    0    0  0.17663144099E+02  0.61356034851E+01 -0.54701917786E+03  0.54733866412E+03  0.00000000000E+00 0. -1.
       21    1    1    2  503  501  0.49187573095E+01  0.35271502475E+02 -0.10824822657E+03  0.11395591961E+03  0.00000000000E+00 0.  1.
        1    1    1    2  501    0 -0.17919403102E+02 -0.15050544730E+02 -0.22058147694E+03  0.22181932258E+03  0.00000000000E+00 0. -1.
</event>
<event>
 7   1  0.9172800E+00  0.8040000E+02  0.7957747E-01  0.1297830E+00
        2   -1    0    0  501    0  0.00000000000E+00  0.00000000000E+00  0.44363718458E+03  0.44363718458E+03  0.00000000000E+00 0. -1.
        2   -1    0    0  502    0  0.00000000000E+00  0.00000000000E+00 -0.12304961210E+04  0.12304961210E+04  0.00000000000E+00 0.  1.
       24    2    1    2    0    0  0.32428289278E+02 -0.40743652453E+01  0.36431379716E+03  0.37460955175E+03  0.80867663913E+02 0.  0.
      -11    1    3    3    0    0  0.47707567987E+02 -0.24095324448E+02  0.15868350140E+03  0.16744267771E+03  0.00000000000E+00 0.  1.
       12    1    3    3    0    0 -0.15279278708E+02  0.20020959203E+02  0.20563029576E+03  0.20716687404E+03  0.00000000000E+00 0. -1.
        2    1    1    2  501    0 -0.14386785855E+02  0.86804728950E+01 -0.12241211246E+04  0.12242364387E+04  0.00000000000E+00 0.  1.
        1    1    1    2  502    0 -0.18041503424E+02 -0.46061076497E+01  0.72948390980E+02  0.75287315133E+02  0.00000000000E+00 0. -1.
</event>
<event>
 7   2  0.9172800E+00  0.8040000E+02  0.7957747E-01  0.1297830E+00
       21   -1    0    0  501  502  0.00000000000E+00  0.00000000000E+00  0.57219641213E+02  0.57219641213E+02  0.00000000000E+00 0.  1.
        3   -1    0    0  503    0  0.00000000000E+00  0.00000000000E+00 -0.10603311528E+03  0.10603311528E+03  0.00000000000E+00 0. -1.
      -24    2    1    2    0    0  0.23962084251E+02  0.33311671867E+02 -0.33991701834E+02  0.91770487909E+02  0.74716381693E+02 0.  0.
       11    1    3    3    0    0 -0.98406398784E+01 -0.19028976762E+02 -0.14363259253E+01  0.21470984653E+02  0.00000000000E+00 0. -1.
      -12    1    3    3    0    0  0.33802724129E+02  0.52340648629E+02 -0.32555375909E+02  0.70299503256E+02  0.00000000000E+00 0.  1.
       21    1    1    2  503  502 -0.30724121011E+02 -0.11873551343E+02 -0.29842052356E+02  0.44446607544E+02  0.00000000000E+00 0. -1.
        4    1    1    2  501    0  0.67620367600E+01 -0.21438120524E+02  0.15020280124E+02  0.27035661038E+02  0.00000000000E+00 0. -1.
</event>
<event>
 7   1  0.9172800E+00  0.8040000E+02  0.7957747E-01  0.1297830E+00
       -3   -1    0    0    0  501  0.00000000000E+00  0.00000000000E+00  0.52693442484E+03  0.52693442484E+03  0.00000000000E+00 0.  1.
       21   -1    0    0  501  502  0.00000000000E+00  0.00000000000E+00 -0.16707789640E+03  0.16707789640E+03  0.00000000000E+00 0. -1.
       24    2    1    2    0    0  0.26886375858E+02 -0.10889088946E+02  0.47375416248E+03  0.48200331767E+03  0.83921048125E+02 0.  0.
      -11    1    3    3    0    0  0.45853774874E+02  0.28459884018E+01  0.42936178655E+03  0.43181270485E+03  0.00000000000E+00 0.  1.
       12    1    3    3    0    0 -0.18967399015E+02 -0.13735077347E+02  0.44392375930E+02  0.50190612826E+02  0.00000000000E+00 0. -1.
       21    1    1    2  503  502  0.11563693184E+02  0.27582595422E+02 -0.15227039912E+03  0.15517987311E+03  0.00000000000E+00 0. -1.
       -4    1    1    2    0  503 -0.38450069042E+02 -0.16693506477E+02  0.38372765082E+02  0.56829130451E+02  0.00000000000E+00 0.  1.
</event>
<event>
 7   2  0.9172800E+00  0.8040000E+02  0.7957747E-01  0.1297830E+00
       21   -1    0    0  501  502  0.00000000000E+00  0.00000000000E+00  0.10088178371E+03  0.10088178371E+03  0.00000000000E+00 0. -1.
        1   -1    0    0  503    0  0.00000000000E+00  0.00000000000E+00 -0.49384218821E+03  0.49384218821E+03  0.00000000000E+00 0. -1.
      -24    2    1    2    0    0  0.46655346561E+01  0.44306438875E+02 -0.43275324215E+03  0.44267091034E+03  0.81837268612E+02 0.  0.
       11    1    3    3    0    0  0.26675807802E+02  0.43028341101E+02 -0.39998421163E+03  0.40317540403E+03  0.00000000000E+00 0. -1.
      -12    1    3    3    0    0 -0.22010273146E+02  0.12780977735E+01 -0.32769030516E+02  0.39495506312E+02  0.00000000000E+00 0.  1.
       21    1    1    2  503  502  0.36840414125E+02 -0.50839705768E+02 -0.30776753320E+02  0.69922101945E+02  0.00000000000E+00 0. -1.
        2    1    1    2  501    0 -0.41505948781E+02  0.65332668929E+01  0.70569590974E+02  0.82130959636E+02  0.00000000000E+00 0. -1.
</event>
<event>
 7   1  0.9172800E+00  0.8040000E+02  0.7957747E-01  0.1297830E+00
       -3   -1    0    0    0  501  0.00000000000E+00  0.00000000000E+00  0.51020476758E+03  0.51020476758E+03  0.00000000000E+00 0.  1.
       21   -1    0    0  501  502  0.00000000000E+00  0.00000000000E+00 -0.11272306938E+03  0.11272306938E+03  0.00000000000E+00 0.  1.
       24    2    1    2    0    0  0.64676902937E+02  0.50662947184E+02  0.94233141808E+02  0.14837214399E+03  0.79903517488E+02 0.  0.
      -11    1    3    3    0    0  0.83148336423E+02  0.45812404079E+02  0.72578347379E+02  0.11949911600E+03  0.00000000000E+00 0.  1.
       12    1    3    3    0    0 -0.18471433486E+02  0.48505431044E+01  0.21654794429E+02  0.28873027988E+02  0.00000000000E+00 0. -1.
       21    1    1    2  503  502 -0.64687060805E+02 -0.20272165209E+03  0.16960783975E+03  0.27211634160E+03  0.00000000000E+00 0.  1.
       -4    1    1    2    0  503  0.10157868287E-01  0.15205870490E+03  0.13364071664E+03  0.20243935137E+03  0.00000000000E+00 0.  1.
</event>
<event>
 7   1  0.9172800E+00  0.8040000E+02  0.7957747E-01  0.1297830E+00
       -1   -1    0    0    0  501  0.00000000000E+00  0.00000000000E+00  0.64723380115E+03  0.64723380115E+03  0.00000000000E+00 0.  1.
       21   -1    0    0  503  502  0.00000000000E+00  0.00000000000E+00 -0.41996069224E+02  0.41996069224E+02  0.00000000000E+00 0.  1.
       24    2    1    2    0    0 -0.56094951064E+02 -0.86898288288E+02  0.31570163116E+03  0.34159870039E+03  0.79524814697E+02 0.  0.
      -11    1    3    3    0    0 -0.18577055007E+02 -0.50809078925E+02  0.25914180847E+03  0.26472843892E+03  0.00000000000E+00 0.  1.
       12    1    3    3    0    0 -0.37517896057E+02 -0.36089209363E+02  0.56559822684E+02  0.76870261473E+02  0.00000000000E+00 0. -1.
       21    1    1    2  503  501  0.40964240110E+02  0.80740574868E+02  0.30913302918E+03  0.32211851721E+03  0.00000000000E+00 0.  1.
       -2    1    1    2    0  502  0.15130710954E+02  0.61577134204E+01 -0.19596928409E+02  0.25512652775E+02  0.00000000000E+00 0.  1.
</event>
<event>
 7   2  0.9172800E+00  0.8040000E+02  0.7957747E-01  0.1297830E+00
        1   -1    0    0  502    0  0.00000000000E+00  0.00000000000E+00  0.13598693208E+04  0.13598693208E+04  0.00000000000E+00 0. -1.
       -2   -1    0    0    0  501  0.00000000000E+00  0.00000000000E+00 -0.22000656832E+02  0.22000656832E+02  0.00000000000E+00 0.  1.
      -24    2    1    2    0    0 -0.58886946012E+02 -0.12760003990E+02  0.11573669587E+03  0.15538453656E+03  0.84373463355E+02 0.  0.
       11    1    3    3    0    0  0.14242642488E+02 -0.25727474932E+02  0.32388191826E+02  0.43746437583E+02  0.00000000000E+00 0. -1.
      -12    1    3    3    0    0 -0.73129588500E+02  0.12967470943E+02  0.83348504041E+02  0.11163809897E+03  0.00000000000E+00 0.  1.
       21    1    1    2  502  503  0.33676466131E+02  0.12297108320E+02  0.15645016195E+03  0.16050537816E+03  0.00000000000E+00 0. -1.
       21    1    1    2  503  501  0.25210479881E+02  0.46289566946E+00  0.10656818061E+04  0.10659800629E+04  0.00000000000E+00 0. -1.
</event>
<event>
 7   1  0.9172800E+00  0.8040000E+02  0.7957747E-01  0.1297830E+00
        2   -1    0    0  502    0  0.00000000000E+00  0.00000000000E+00  0.16881051686E+02  0.16881051686E+02  0.00000000000E+00 0. -1.
       21   -1    0    0  503  502  0.00000000000E+00  0.00000000000E+00 -0.46055898044E+03  0.46055898044E+03  0.00000000000E+00 0. -1.
       24    2    1    2    0    0  0.48623680038E+02  0.29861564143E+02 -0.23404544416E+03  0.25436555837E+03  0.81661447950E+02 0.  0.
      -11    1    3    3    0    0  0.55775478040E+02  0.16892564787E+02 -0.23224627861E+03  0.23944643790E+03  0.00000000000E+00 0.  1.
       12    1    3    3    0    0 -0.71517980027E+01  0.12968999356E+02 -0.17991655491E+01  0.14919120471E+02  0.00000000000E+00 0. -1.
       21    1    1    2  503  501 -0.17202375470E+02  0.69326074123E+01 -0.19621321086E+02  0.26999611266E+02  0.00000000000E+00 0. -1.
        1    1    1    2  501    0 -0.31421304568E+02 -0.36794171555E+02 -0.19001116351E+03  0.19607486249E+03  0.00000000000E+00 0. -1.
</event>
<event>
 7   1  0.9172800E+00  0.8040000E+02  0.7957747E-01  0.1297830E+00
       21   -1    0    0  501  502  0.00000000000E+00  0.00000000000E+00  0.59096987548E+01  0.59096987548E+01  0.00000000000E+00 0. -1.
        2   -1    0    0  503    0  0.00000000000E+00  0.00000000000E+00 -0.11386332872E+04  0.11386332872E+04  0.00000000000E+00 0. -1.
       24    2    1    2    0    0  0.60951970962E+01 -0.47862980917E+02 -0.45635027885E+03  0.46560302756E+03  0.78756497511E+02 0.  0.
      -11    1    3    3    0    0  0.15249904564E+02  0.19103784432E+02 -0.13928359828E+03  0.14141228701E+03  0.00000000000E+00 0.  1.
       12    1    3    3    0    0 -0.91547074681E+01 -0.66966765349E+02 -0.31706668057E+03  0.32419074055E+03  0.00000000000E+00 0. -1.
       21    1    1    2  503  502 -0.16945906918E+02  0.12876044908E+02 -0.18973318296E+03  0.19092311806E+03  0.00000000000E+00 0. -1.
        1    1    1    2  501    0  0.10850709822E+02  0.34986936009E+02 -0.48664012669E+03  0.48801684038E+03  0.00000000000E+00 0. -1.
</event>
<event>
 7   2  0.9172800E+00  0.8040000E+02  0.7957747E-01  0.1297830E+00
        1   -1    0    0  502    0  0.00000000000E+00  0.00000000000E+00  0.19281653721E+03  0.19281653721E+03  0.00000000000E+00 0. -1.
       21   -1    0    0  503  502  0.00000000000E+00  0.00000000000E+00 -0.41387275339E+02  0.41387275339E+02  0.00000000000E+00 0.  1.
      -24    2    1    2    0    0 -0.36890977796E+02 -0.16563083384E+01  0.88604335546E+02  0.12468975840E+03  0.79580902060E+02 0.  0.
       11    1    3    3    0    0  0.77019405689E+01 -0.21846701823E+02  0.67534809644E+02  0.71397120269E+02  0.00000000000E+00 0. -1.
      -12    1    3    3    0    0 -0.44592918365E+02  0.20190393485E+02  0.21069525902E+02  0.53292638133E+02  0.00000000000E+00 0.  1.
       21    1    1    2  503  501  0.13368076576E+02  0.73276209673E+01 -0.18900236199E+02  0.24282059813E+02  0.00000000000E+00 0.  1.
        2    1    1    2  501    0  0.23522901220E+02 -0.56713126289E+01  0.81725162528E+02  0.85231994339E+02  0.00000000000E+00 0. -1.
</event>
<event>
 7   1  0.9172800E+00  0.8040000E+02  0.7957747E-01  0.1297830E+00
        2   -1    0    0  501    0  0.00000000000E+00  0.00000000000E+00  0.13580845194E+04  0.13580845194E+04  0.00000000000E+00 0. -1.
        4   -1    0    0  502    0  0.00000000000E+00  0.00000000000E+00 -0.73778522310E+02  0.73778522310E+02  0.00000000000E+00 0. -1.
       24    2    1    2    0    0  0.12543847336E+03  0.92645482270E+02  0.11081871818E+04  0.11222294491E+04  0.83678615494E+02 0.  0.
      -11    1    3    3    0    0  0.26466698807E+02  0.60480838946E+02  0.28819268656E+03  0.29565764426E+03  0.00000000000E+00 0.  1.
       12    1    3    3    0    0  0.98971774550E+02  0.32164643324E+02  0.81999449522E+03  0.82657180489E+03  0.00000000000E+00 0. -1.
        4    1    1    2  501    0 -0.27536828171E+02  0.45356880452E+02 -0.14246705380E+02  0.54940805639E+02  0.00000000000E+00 0. -1.
        1    1    1    2  502    0 -0.97901645186E+02 -0.13800236272E+03  0.19036552072E+03  0.25469278695E+03  0.00000000000E+00 0. -1.
</event>
<event>
 7   1  0.9172800E+00  0.8040000E+02  0.7957747E-01  0.1297830E+00
        2   -1    0    0  502    0  0.00000000000E+00  0.00000000000E+00  0.45962358852E+03  0.45962358852E+03  0.00000000000E+00 0. -1.
       21   -1    0    0  503  502  0.00000000000E+00  0.00000000000E+00 -0.30332798781E+02  0.30332798781E+02  0.00000000000E+00 0. -1.
       24    2    1    2    0    0  0.44047378733E+02  0.37604967813E+02  0.15637247688E+03  0.18316782280E+03  0.75787826250E+02 0.  0.
      -11    1    3    3    0    0  0.40122493235E+01 -0.15938653951E+02  0.79981243949E+02  0.81652545692E+02  0.00000000000E+00 0.  1.
       12    1    3    3    0    0  0.40035129409E+02  0.53543621763E+02  0.76391232931E+02  0.10151527711E+03  0.00000000000E+00 0. -1.
       21    1    1    2  503  501  0.67068304353E+01 -0.33607301251E+02  0.56721702533E+01  0.34736231621E+02  0.00000000000E+00 0. -1.
        1    1    1    2  501    0 -0.50754209168E+02 -0.39976665621E+01  0.26724614261E+03  0.27205233288E+03  0.00000000000E+00 0. -1.
</event>
<event>
 7   2  0.9172800E+00  0.8040000E+02  0.7957747E-01  0.1297830E+00
        3   -1    0    0  502    0  0.00000000000E+00  0.00000000000E+00  0.21972298890E+03  0.21972298890E+03  0.00000000000E+00 0. -1.
       21   -1    0    0  503  502  0.00000000000E+00  0.00000000000E+00 -0.11577927212E+03  0.11577927212E+03  0.00000000000E+00 0. -1.
      -24    2    1    2    0    0 -0.67562681511E+02 -0.11113205866E+03  0.11736299426E+03  0.19309317405E+03  0.81214844982E+02 0.  0.
       11    1    3    3    0    0 -0.33282250943E+02 -0.10056213328E+03  0.11615210840E+03  0.15719975561E+03  0.00000000000E+00 0. -1.
      -12    1    3    3    0    0 -0.34280430568E+02 -0.10569925385E+02  0.12108858611E+01  0.35893418438E+02  0.00000000000E+00 0.  1.
       21    1    1    2  503  501  0.66170440426E+02  0.70654029065E+02 -0.25573886802E+02  0.10012263828E+03  0.00000000000E+00 0. -1.
        4    1    1    2  501    0  0.13922410847E+01  0.40478029596E+02  0.12154609322E+02  0.42286448692E+02  0.00000000000E+00 0. -1.
</event>
<event>
 7   1  0.9172800E+00  0.8040000E+02  0.7957747E-01  0.1297830E+00
        2   -1    0    0  503    0  0.00000000000E+00  0.00000000000E+00  0.61096526349E+03  0.61096526349E+03  0.00000000000E+00 0. -1.
       21   -1    0    0  501  502  0.00000000000E+00  0.00000000000E+00 -0.52018604903E+02  0.52018604903E+02  0.00000000000E+00 0.  1.
       24    2    1    2    0    0 -0.41667355410E+01  0.34453979105E+02  0.58336964154E+03  0.58987350981E+03  0.80163461370E+02 0.  0.
      -11    1    3    3    0    0  0.30028552594E+02  0.14962836018E+02  0.11340897543E+03  0.11826747710E+03  0.00000000000E+00 0.  1.
       12    1    3    3    0    0 -0.34195288135E+02  0.19491143087E+02  0.46996066611E+03  0.47160603270E+03  0.00000000000E+00 0. -1.
       21    1    1    2  503  502 -0.22655368495E+02 -0.17946098071E+02 -0.29396841726E+02  0.41225022269E+02  0.00000000000E+00 0.  1.
        1    1    1    2  501    0  0.26822104036E+02 -0.16507881034E+02  0.49738587771E+01  0.31885336321E+02  0.00000000000E+00 0. -1.
</event>
<event>
 7   2  0.9172800E+00  0.8040000E+02  0.7957747E-01  0.1297830E+00
       21   -1    0    0  503  502  0.00000000000E+00  0.00000000000E+00  0.88242090957E+03  0.88242090957E+03  0.00000000000E+00 0. -1.
        1   -1    0    0  502    0  0.00000000000E+00  0.00000000000E+00 -0.11702210851E+03  0.11702210851E+03  0.00000000000E+00 0. -1.
      -24    2    1    2    0    0  0.46475194766E+02  0.21847926455E+02 -0.65949638410E+02  0.11679503610E+03  0.81574812488E+02 0.  0.
       11    1    3    3    0    0  0.53171726041E+02  0.43039518287E+02 -0.65284590359E+02  0.94560617188E+02  0.00000000000E+00 0. -1.
      -12    1    3    3    0    0 -0.66965312755E+01 -0.21191591832E+02 -0.66504805114E+00  0.22234418913E+02  0.00000000000E+00 0.  1.
       21    1    1    2  503  501  0.35981764538E+01 -0.68389219277E+02  0.80726897001E+03  0.81016863808E+03  0.00000000000E+00 0. -1.
        2    1    1    2  501    0 -0.50073371220E+02  0.46541292823E+02  0.24079469457E+02  0.72479343901E+02  0.00000000000E+00 0. -1.
</event>
<event>
 7   1  0.9172800E+00  0.8040000E+02  0.7957747E-01  0.1297830E+00
       21   -1    0    0  501  502  0.00000000000E+00  0.00000000000E+00  0.12680531659E+03  0.12680531659E+03  0.00000000000E+00 0. -1.
        2   -1    0    0  503    0  0.00000000000E+00  0.00000000000E+00 -0.33331110854E+03  0.33331110854E+03  0.00000000000E+00 0. -1.
       24    2    1    2    0    0 -0.59283004653E+01 -0.18386808591E+02  0.81195657166E+02  0.11500686273E+03  0.79124106663E+02 0.  0.
      -11    1    3    3    0    0 -0.19361796133E+02  0.25619222265E+02  0.49977029422E+02  0.59404773956E+02  0.00000000000E+00 0.  1.
       12    1    3    3    0    0  0.13433495667E+02 -0.44006030856E+02  0.31218627744E+02  0.55602088771E+02  0.00000000000E+00 0. -1.
       21    1    1    2  503  502  0.16333499788E+02 -0.23263401036E+02 -0.29929470604E+03  0.30064146438E+03  0.00000000000E+00 0. -1.
        1    1    1    2  501    0 -0.10405199323E+02  0.41650209627E+02  0.11593256928E+02  0.44468098016E+02  0.00000000000E+00 0. -1.
</event>
<event>
 7   2  0.9172800E+00  0.8040000E+02  0.7957747E-01  0.1297830E+00
       21   -1    0    0  501  502  0.00000000000E+00  0.00000000000E+00  0.29466131224E+02  0.29466131224E+02  0.00000000000E+00 0.  1.
       21   -1    0    0  502  503  0.00000000000E+00  0.00000000000E+00 -0.27765025547E+03  0.27765025547E+03  0.00000000000E+00 0.  1.
      -24    2    1    2    0    0 -0.18890216352E+02  0.43866430542E+02 -0.84529652570E+02  0.12755098610E+03  0.82721749796E+02 0.  0.
       11    1    3    3    0    0  0.22173797507E+02 -0.10468479066E+01 -0.56197607287E+02  0.60423044041E+02  0.00000000000E+00 0. -1.
      -12    1    3    3    0    0 -0.41064013859E+02  0.44913278449E+02 -0.28332045283E+02  0.67127942060E+02  0.00000000000E+00 0.  1.
        2    1    1    2  501    0  0.51759465472E+00 -0.30170427382E+02 -0.25451149157E+02  0.39475100837E+02  0.00000000000E+00 0. -1.
       -1    1    1    2    0  503  0.18372621697E+02 -0.13696003160E+02 -0.13820332252E+03  0.14009029976E+03  0.00000000000E+00 0.  1.
</event>
<event>
 7   1  0.9172800E+00  0.8040000E+02  0.7957747E-01  0.1297830E+00
       -1   -1    0    0    0  501  0.00000000000E+00  0.00000000000E+00  0.19089710973E+02  0.19089710973E+02  0.00000000000E+00 0.  1.
        1   -1    0    0  501    0  0.00000000000E+00  0.00000000000E+00 -0.11328555736E+04  0.11328555736E+04  0.00000000000E+00 0.  1.
       24    2    1    2    0    0 -0.55523341039E+02 -0.16536400074E+02 -0.19769361382E+03  0.21985331178E+03  0.76788148995E+02 0.  0.
      -11    1    3    3    0    0 -0.21452203020E+02 -0.82556045791E+01 -0.43974664185E+01  0.23402771893E+02  0.00000000000E+00 0.  1.
       12    1    3    3    0    0 -0.34071138019E+02 -0.82807954954E+01 -0.19329614740E+03  0.19645053988E+03  0.00000000000E+00 0. -1.
        1    1    1    2  502    0  0.20485343057E+02 -0.17655154708E+02 -0.84698957024E+03  0.84742119743E+03  0.00000000000E+00 0.  1.
       -2    1    1    2    0  502  0.35037997982E+02  0.34191554782E+02 -0.69082678524E+02  0.84670775319E+02  0.00000000000E+00 0.  1.
</event>
<event>
 7   1  0.9172800E+00  0.8040000E+02  0.7957747E-01  0.1297830E+00
        2   -1    0    0  502    0  0.00000000000E+00  0.00000000000E+00  0.39432226658E+03  0.39432226658E+03  0.00000000000E+00 0. -1.
       21   -1    0    0  503  502  0.00000000000E+00  0.00000000000E+00 -0.19803271848E+03  0.19803271848E+03  0.00000000000E+00 0.  1.
       24    2    1    2    0    0 -0.35054474483E+01  0.12305891492E+02  0.38573777146E+03  0.39426409348E+03  0.80540821645E+02 0.  0.
      -11    1    3    3    0    0  0.36168203962E+02  0.19163116271E+02  0.17600002776E+03  0.18069691136E+03  0.00000000000E+00 0.  1.
       12    1    3    3    0    0 -0.39673651410E+02 -0.68572247792E+01  0.20973774370E+03  0.21356718212E+03  0.00000000000E+00 0. -1.
       21    1    1    2  503  501  0.23050681833E+01  0.17678064015E+02 -0.13274611812E+03  0.13393789293E+03  0.00000000000E+00 0.  1.
        1    1    1    2  501    0  0.12003792650E+01 -0.29983955507E+02 -0.56702105232E+02  0.64152998651E+02  0.00000000000E+00 0. -1.
</event>
<event>
 7   1  0.9172800E+00  0.8040000E+02  0.7957747E-01  0.1297830E+00
        2   -1    0    0  502    0  0.00000000000E+00  0.00000000000E+00  0.20124972012E+03  0.20124972012E+03  0.00000000000E+00 0. -1.
        1   -1    0    0  501    0  0.00000000000E+00  0.00000000000E+00 -0.14356025918E+03  0.14356025918E+03  0.00000000000E+00 0.  1.
       24    2    1    2    0    0 -0.96571871215E+00 -0.25632529617E+02  0.18513925414E+03  0.20382978629E+03  0.81314692201E+02 0.  0.
      -11    1    3    3    0    0  0.17281228235E+02 -0.24763674997E+02  0.16906123740E+02  0.34607766015E+02  0.00000000000E+00 0.  1.
       12    1    3    3    0    0 -0.18246946947E+02 -0.86885462004E+00  0.16823313040E+03  0.16922202027E+03  0.00000000000E+00 0. -1.
        1    1    1    2  501    0 -0.14707625780E+02  0.21971582286E+02 -0.22249656989E+02  0.34555924534E+02  0.00000000000E+00 0. -1.
        1    1    1    2  502    0  0.15673344492E+02  0.36609473307E+01 -0.10520013621E+03  0.10642426848E+03  0.00000000000E+00 0.  1.
</event>
<event>
 7   1  0.9172800E+00  0.8040000E+02  0.7957747E-01  0.1297830E+00
        2   -1    0    0  503    0  0.00000000000E+00  0.00000000000E+00  0.23770807859E+03  0.23770807859E+03  0.00000000000E+00 0. -1.
       21   -1    0    0  501  502  0.00000000000E+00  0.00000000000E+00 -0.43606055044E+02  0.43606055044E+02  0.00000000000E+00 0. -1.
       24    2    1    2    0    0  0.43239138556E+02 -0.40009186472E+02  0.15342754514E+03  0.18325490058E+03  0.81067804164E+02 0.  0.
      -11    1    3    3    0    0 -0.23039074748E+02 -0.14909427563E+02  0.28104939574E+02  0.39280753862E+02  0.00000000000E+00 0.  1.
       12    1    3    3    0    0  0.66278213304E+02 -0.25099758909E+02  0.12532260557E+03  0.14397414671E+03  0.00000000000E+00 0. -1.
       21    1    1    2  503  502 -0.27416241392E+01 -0.14708779394E+02 -0.53462754919E+01  0.15888592002E+02  0.00000000000E+00 0.  1.
        1    1    1    2  501    0 -0.40497514417E+02  0.54717965866E+02  0.46020753901E+02  0.82170641059E+02  0.00000000000E+00 0. -1.
</event>
<event>
 7   1  0.9172800E+00  0.8040000E+02  0.7957747E-01  0.1297830E+00
       -3   -1    0    0    0  501  0.00000000000E+00  0.00000000000E+00  0.10043846583E+03  0.10043846583E+03  0.00000000000E+00 0.  1.
        4   -1    0    0  502    0  0.00000000000E+00  0.00000000000E+00 -0.43144671175E+02  0.43144671175E+02  0.00000000000E+00 0. -1.
       24    2    1    2    0    0  0.36241876715E+01 -0.92011867029E+01  0.69247930618E+02  0.10213612053E+03  0.74422541275E+02 0.  0.
      -11    1    3    3    0    0  0.19457059731E+02 -0.69175054078E+01  0.80156660191E+02  0.82773904266E+02  0.00000000000E+00 0.  1.
       12    1    3    3    0    0 -0.15832872060E+02 -0.22836812951E+01 -0.10908729573E+02  0.19362216268E+02  0.00000000000E+00 0. -1.
       21    1    1    2  502  503  0.80946411148E+01 -0.12565369904E+02 -0.51106597336E+01  0.15796536915E+02  0.00000000000E+00 0.  1.
       21    1    1    2  503  501 -0.11718828786E+02  0.21766556607E+02 -0.68434762276E+01  0.25650479557E+02  0.00000000000E+00 0. -1.
</event>
<event>
 7   1  0.9172800E+00  0.8040000E+02  0.7957747E-01  0.1297830E+00
        2   -1    0    0  503    0  0.00000000000E+00  0.00000000000E+00  0.11279796256E+04  0.11279796256E+04  0.00000000000E+00 0. -1.
       21   -1    0    0  501  502  0.00000000000E+00  0.00000000000E+00 -0.39657007279E+01  0.39657007279E+01  0.00000000000E+00 0.  1.
       24    2    1    2    0    0 -0.87750717067E+01  0.24905225718E+01  0.66257860548E+03  0.66756738184E+03  0.80948108456E+02 0.  0.
      -11    1    3    3    0    0 -0.12044976338E+02  0.24019186056E+02  0.76453132411E+02  0.81037548145E+02  0.00000000000E+00 0.  1.
       12    1    3    3    0    0  0.32699046316E+01 -0.21528663484E+02  0.58612547307E+03  0.58652983369E+03  0.00000000000E+00 0. -1.
       21    1    1    2  503  502  0.58650405256E+01  0.14043654559E+02  0.40978874789E+03  0.41007126311E+03  0.00000000000E+00 0.  1.
        1    1    1    2  501    0  0.29100311811E+01 -0.16534177131E+02  0.51646571533E+02  0.54306681412E+02  0.00000000000E+00 0. -1.
</event>
<event>
 7   1  0.9172800E+00  0.8040000E+02  0.7957747E-01  0.1297830E+00
       21   -1    0    0  501  502  0.00000000000E+00  0.00000000000E+00  0.90052575509E+02  0.90052575509E+02  0.00000000000E+00 0. -1.
        2   -1    0    0  503    0  0.00000000000E+00  0.00000000000E+00 -0.38886870249E+03  0.38886870249E+03  0.00000000000E+00 0. -1.
       24    2    1    2    0    0 -0.27572939042E+01 -0.17065119991E+01 -0.20531751634E+03  0.22016539160E+03  0.79416637338E+02 0.  0.
      -11    1    3    3    0    0  0.20248468769E+02 -0.16839747029E+02 -0.20677796985E+02  0.33483560976E+02  0.00000000000E+00 0.  1.
       12    1    3    3    0    0 -0.23005762673E+02  0.15133235030E+02 -0.18463971936E+03  0.18668183062E+03  0.00000000000E+00 0. -1.
       21    1    1    2  503  502 -0.41478257330E+01  0.16040584426E+02 -0.17496633808E+03  0.17574903774E+03  0.00000000000E+00 0. -1.
        1    1    1    2  501    0  0.69051196373E+01 -0.14334072427E+02  0.81467727442E+02  0.83006848658E+02  0.00000000000E+00 0. -1.
</event>
<event>
 7   1  0.9172800E+00  0.8040000E+02  0.7957747E-01  0.1297830E+00
       21   -1    0    0  501  502  0.00000000000E+00  0.00000000000E+00  0.25608598792E+02  0.25608598792E+02  0.00000000000E+00 0.  1.
        2   -1    0    0  503    0  0.00000000000E+00  0.00000000000E+00 -0.52893675519E+03  0.52893675519E+03  0.00000000000E+00 0. -1.
       24    2    1    2    0    0 -0.25965149141E+01 -0.51304895522E+02 -0.28875324701E+03  0.30458702074E+03  0.82194168591E+02 0.  0.
      -11    1    3    3    0    0 -0.41975589476E+00 -0.57077585734E+02 -0.95658825360E+02  0.11139406563E+03  0.00000000000E+00 0.  1.
       12    1    3    3    0    0 -0.21767590193E+01  0.57726902120E+01 -0.19309442165E+03  0.19319295511E+03  0.00000000000E+00 0. -1.
       21    1    1    2  503  502  0.10220949671E+02  0.14338136398E+02  0.11319141282E+02  0.20932580512E+02  0.00000000000E+00 0.  1.
        1    1    1    2  501    0 -0.76244347571E+01  0.36966759124E+02 -0.22589405067E+03  0.22902575273E+03  0.00000000000E+00 0. -1.
</event>
<event>
 7   2  0.9172800E+00  0.8040000E+02  0.7957747E-01  0.1297830E+00
        1   -1    0    0  502    0  0.00000000000E+00  0.00000000000E+00  0.17421939101E+03  0.17421939101E+03  0.00000000000E+00 0. -1.
       21   -1    0    0  503  502  0.00000000000E+00  0.00000000000E+00 -0.55564432510E+02  0.55564432510E+02  0.00000000000E+00 0. -1.
      -24    2    1    2    0    0 -0.89581661288E+01  0.38250551286E+02  0.12601369977E+03  0.15424289220E+03  0.79800149430E+02 0.  0.
       11    1    3    3    0    0  0.22681426410E+01  0.62298761261E+02  0.91079134526E+02  0.11037068846E+03  0.00000000000E+00 0. -1.
      -12    1    3    3    0    0 -0.11226308770E+02 -0.24048209975E+02  0.34934565244E+02  0.43872203733E+02  0.00000000000E+00 0.  1.
       21    1    1    2  503  501 -0.22377088463E+02  0.22999564510E+01  0.44981267601E+01  0.22940292764E+02  0.00000000000E+00 0.  1.
        2    1    1    2  501    0  0.31335254592E+02 -0.40550507737E+02 -0.11856868025E+02  0.52600638565E+02  0.00000000000E+00 0. -1.
</event>
<event>
 7   1  0.9172800E+00  0.8040000E+02  0.7957747E-01  0.1297830E+00
        2   -1    0    0  503    0  0.00000000000E+00  0.00000000000E+00  0.21307514117E+03  0.21307514117E+03  0.00000000000E+00 0. -1.
       21   -1    0    0  501  502  0.00000000000E+00  0.00000000000E+00 -0.13359330723E+03  0.13359330723E+03  0.00000000000E+00 0. -1.
       24    2    1    2    0    0  0.74799206852E+02  0.97090086191E+01  0.71104255880E+02  0.12850068201E+03  0.75943557190E+02 0.  0.
      -11    1    3    3    0    0  0.24308208747E+02 -0.11149229607E+02  0.68808444763E+02  0.73822736363E+02  0.00000000000E+00 0.  1.
       12    1    3    3    0    0  0.50490998104E+02  0.20858238226E+02  0.22958111170E+01  0.54677945647E+02  0.00000000000E+00 0. -1.
       21    1    1    2  503  502  0.16302575810E+02  0.22676705736E+02  0.88371136875E+02  0.92679365523E+02  0.00000000000E+00 0. -1.
        1    1    1    2  501    0 -0.91101782662E+02 -0.32385714355E+02 -0.79993558815E+02  0.12548840086E+03  0.00000000000E+00 0. -1.
</event>
<event>
 7   1  0.9172800E+00  0.8040000E+02  0.7957747E-01  0.1297830E+00
       -3   -1    0    0    0  501  0.00000000000E+00  0.00000000000E+00  0.11846927047E+03  0.11846927047E+03  0.00000000000E+00 0.  1.
       21   -1    0    0  501  502  0.00000000000E+00  0.00000000000E+00 -0.13397251044E+03  0.13397251044E+03  0.00000000000E+00 0. -1.
       24    2    1    2    0    0  0.52870335213E+00  0.73027466752E+00  0.94357647908E+02  0.12686344609E+03  0.84794784074E+02 0.  0.
      -11    1    3    3    0    0  0.18460258114E+02  0.42298749960E+01  0.10433965623E+03  0.10604450402E+03  0.00000000000E+00 0.  1.
       12    1    3    3    0    0 -0.17931554762E+02 -0.34996003285E+01 -0.99820083181E+01  0.20818942065E+02  0.00000000000E+00 0. -1.
       21    1    1    2  503  502  0.14728511550E+02  0.81374428953E+01 -0.10623910369E+03  0.10756344259E+03  0.00000000000E+00 0. -1.
       -4    1    1    2    0  503 -0.15257214902E+02 -0.88677175629E+01 -0.36217841814E+01  0.18014892228E+02  0.00000000000E+00 0.  1.
</event>
<event>
 7   1  0.9172800E+00  0.8040000E+02  0.7957747E-01  0.1297830E+00
       21   -1    0    0  501  502  0.00000000000E+00  0.00000000000E+00  0.16961216833E+03  0.16961216833E+03  0.00000000000E+00 0.  1.
       21   -1    0    0  502  503  0.00000000000E+00  0.00000000000E+00 -0.50372604952E+02  0.50372604952E+02  0.00000000000E+00 0.  1.
       24    2    1    2    0    0  0.21137002492E+02  0.32818590996E+02  0.12061907936E+03  0.15011160684E+03  0.80378476057E+02 0.  0.
      -11    1    3    3    0    0  0.11232519361E+02  0.40823076110E+02  0.16859395921E+02  0.45573372325E+02  0.00000000000E+00 0.  1.
       12    1    3    3    0    0  0.99044831309E+01 -0.80044851145E+01  0.10375968344E+03  0.10453823452E+03  0.00000000000E+00 0. -1.
        3    1    1    2  501    0 -0.87678638983E+01 -0.13162830096E+02  0.28160094340E+02  0.32297468116E+02  0.00000000000E+00 0. -1.
       -4    1    1    2    0  503 -0.12369138593E+02 -0.19655760900E+02 -0.29539610326E+02  0.37575698321E+02  0.00000000000E+00 0.  1.
</event>
<event>
 7   1  0.9172800E+00  0.8040000E+02  0.7957747E-01  0.1297830E+00
       -1   -1    0    0    0  501  0.00000000000E+00  0.00000000000E+00  0.23398131727E+03  0.23398131727E+03  0.00000000000E+00 0.  1.
        2   -1    0    0  503    0  0.00000000000E+00  0.00000000000E+00 -0.11506519696E+03  0.11506519696E+03  0.00000000000E+00 0. -1.
       24    2    1    2    0    0  0.87123172147E+02  0.24648830674E+02  0.17360143424E+03  0.21260696670E+03  0.82862852607E+02 0.  0.
      -11    1    3    3    0    0  0.10215384631E+03  0.11885500748E+02  0.14967843937E+03  0.18160481452E+03  0.00000000000E+00 0.  1.
       12    1    3    3    0    0 -0.15030674163E+02  0.12763329926E+02  0.23922994867E+02  0.31002152183E+02  0.00000000000E+00 0. -1.
       21    1    1    2  502  501 -0.64658967843E+02 -0.41656371580E+02 -0.70320375559E+02  0.10421607666E+03  0.00000000000E+00 0. -1.
       21    1    1    2  503  502 -0.22464204304E+02  0.17007540906E+02  0.15635061628E+02  0.32223470868E+02  0.00000000000E+00 0.  1.
</event>
<event>
 7   1  0.9172800E+00  0.8040000E+02  0.7957747E-01  0.1297830E+00
        2   -1    0    0  502    0  0.00000000000E+00  0.00000000000E+00  0.20565319444E+03  0.20565319444E+03  0.00000000000E+00 0. -1.
        4   -1    0    0  501    0  0.00000000000E+00  0.00000000000E+00 -0.60054987502E+03  0.60054987502E+03  0.00000000000E+00 0. -1.
       24    2    1    2    0    0 -0.19100262692E+02  0.45169843077E+02 -0.55295026021E+03  0.56085378431E+03  0.79986513494E+02 0.  0.
      -11    1    3    3    0    0  0.19020571531E+02 -0.10120259079E+02 -0.69549846995E+02  0.72810596772E+02  0.00000000000E+00 0.  1.
       12    1    3    3    0    0 -0.38120834223E+02  0.55290102156E+02 -0.48340041322E+03  0.48804318753E+03  0.00000000000E+00 0. -1.
        2    1    1    2  501    0 -0.62342774991E+02 -0.62976450357E+02  0.13011619540E+03  0.15742578949E+03  0.00000000000E+00 0. -1.
        3    1    1    2  502    0  0.81443037683E+02  0.17806607281E+02  0.27937384236E+02  0.87923495653E+02  0.00000000000E+00 0. -1.
</event>
<event>
 7   1  0.9172800E+00  0.8040000E+02  0.7957747E-01  0.1297830E+00
        2   -1    0    0  502    0  0.00000000000E+00  0.00000000000E+00  0.66434162935E+03  0.66434162935E+03  0.00000000000E+00 0. -1.
        2   -1    0    0  501    0  0.00000000000E+00  0.00000000000E+00 -0.53327223675E+02  0.53327223675E+02  0.00000000000E+00 0.  1.
       24    2    1    2    0    0  0.75280083885E+02 -0.69920614142E+02  0.36379416442E+03  0.38669678920E+03  0.81438500745E+02 0.  0.
      -11    1    3    3    0    0  0.16107192368E+02 -0.55588371205E+02  0.96229936696E+02  0.11229296227E+03  0.00000000000E+00 0.  1.
       12    1    3    3    0    0  0.59172891518E+02 -0.14332242937E+02  0.26756422772E+03  0.27440382693E+03  0.00000000000E+00 0. -1.
        2    1    1    2  501    0 -0.13911901935E+03  0.41170002258E+02  0.19766495341E+03  0.24519482955E+03  0.00000000000E+00 0.  1.
        1    1    1    2  502    0  0.63838935469E+02  0.28750611884E+02  0.49555287845E+02  0.85777234269E+02  0.00000000000E+00 0. -1.
</event>
<event>
 7   1  0.9172800E+00  0.8040000E+02  0.7957747E-01  0.1297830E+00
        2   -1    0    0  503    0  0.00000000000E+00  0.00000000000E+00  0.16836530578E+03  0.16836530578E+03  0.00000000000E+00 0. -1.
       21   -1    0    0  501  502  0.00000000000E+00  0.00000000000E+00 -0.44724757571E+02  0.44724757571E+02  0.00000000000E+00 0.  1.
       24    2    1    2    0    0 -0.24763598751E+02  0.32397290936E+02  0.50801413964E+02  0.10350200920E+03  0.80430479073E+02 0.  0.
      -11    1    3    3    0    0  0.92137568462E+01 -0.99785608209E+01 -0.13622845094E+02  0.19236603123E+02  0.00000000000E+00 0.  1.
       12    1    3    3    0    0 -0.33977355598E+02  0.42375851757E+02  0.64424259058E+02  0.84265406073E+02  0.00000000000E+00 0. -1.
       21    1    1    2  503  502 -0.99881893294E+01 -0.34307543789E+02  0.64597253242E+02  0.73821247709E+02  0.00000000000E+00 0. -1.
        1    1    1    2  501    0  0.34751788081E+02  0.19102528536E+01  0.82418810008E+01  0.35766806444E+02  0.00000000000E+00 0. -1.
</event>
<event>
 7   2  0.9172800E+00  0.8040000E+02  0.7957747E-01  0.1297830E+00
        1   -1    0    0  503    0  0.00000000000E+00  0.00000000000E+00  0.12759850977E+04  0.12759850977E+04  0.00000000000E+00 0. -1.
       21   -1    0    0  501  502  0.00000000000E+00  0.00000000000E+00 -0.11279701520E+02  0.11279701520E+02  0.00000000000E+00 0.  1.
      -24    2    1    2    0    0 -0.62762150750E+02  0.12487589981E+01  0.50891091542E+03  0.51917059738E+03  0.81284330488E+02 0.  0.
       11    1    3    3    0    0 -0.80078648392E+01  0.25754570529E+02  0.31597487205E+03  0.31712386156E+03  0.00000000000E+00 0. -1.
      -12    1    3    3    0    0 -0.54754285911E+02 -0.24505811531E+02  0.19293604337E+03  0.20204673582E+03  0.00000000000E+00 0.  1.
       21    1    1    2  503  502 -0.94192972271E+01 -0.24959616167E+02  0.38805919356E+02  0.47091453328E+02  0.00000000000E+00 0.  1.
        2    1    1    2  501    0  0.72181447977E+02  0.23710857169E+02  0.71698856144E+03  0.72100274855E+03  0.00000000000E+00 0. -1.
</event>
<event>
 7   1  0.9172800E+00  0.8040000E+02  0.7957747E-01  0.1297830E+00
       21   -1    0    0  501  502  0.00000000000E+00  0.00000000000E+00  0.50237681062E+01  0.50237681062E+01  0.00000000000E+00 0.  1.
        2   -1    0    0  503    0  0.00000000000E+00  0.00000000000E+00 -0.11469763293E+04  0.11469763293E+04  0.00000000000E+00 0. -1.
       24    2    1    2    0    0  0.22751722549E+02 -0.87326738860E+01 -0.97226905011E+03  0.97577852055E+03  0.79010852972E+02 0.  0.
      -11    1    3    3    0    0  0.32203943530E+02 -0.94758619228E+00 -0.15012040846E+03  0.15353868872E+03  0.00000000000E+00 0.  1.
       12    1    3    3    0    0 -0.94522209812E+01 -0.77850876937E+01 -0.82214864165E+03  0.82223983183E+03  0.00000000000E+00 0. -1.
       21    1    1    2  503  502 -0.79772663602E+01  0.16375240749E+02 -0.26987624555E+02  0.32559440525E+02  0.00000000000E+00 0.  1.
        1    1    1    2  501    0 -0.14774456189E+02 -0.76425668630E+01 -0.14269588656E+03  0.14366213637E+03  0.00000000000E+00 0. -1.
</event>
<event>
 7   2  0.9172800E+00  0.8040000E+02  0.7957747E-01  0.1297830E+00
        1   -1    0    0  503    0  0.00000000000E+00  0.00000000000E+00  0.99481392044E+02  0.99481392044E+02  0.00000000000E+00 0. -1.
       21   -1    0    0  501  502  0.00000000000E+00  0.00000000000E+00 -0.49274381129E+03  0.49274381129E+03  0.00000000000E+00 0. -1.
      -24    2    1    2    0    0  0.11319955211E+02 -0.33811143630E+01  0.77039974927E+02  0.11136522720E+03  0.79545476123E+02 0.  0.
       11    1    3    3    0    0  0.33089552082E+01  0.36122145786E+02  0.53653671620E+02  0.64764767266E+02  0.00000000000E+00 0. -1.
      -12    1    3    3    0    0  0.80110000029E+01 -0.39503260149E+02  0.23386303307E+02  0.46600459931E+02  0.00000000000E+00 0.  1.
       21    1    1    2  503  502  0.33871116139E+02  0.80964731378E+01 -0.35835529721E+03  0.36004350351E+03  0.00000000000E+00 0. -1.
        2    1    1    2  501    0 -0.45191071350E+02 -0.47153587748E+01 -0.11194709696E+03  0.12081647262E+03  0.00000000000E+00 0. -1.
</event>
<event>
 7   1  0.9172800E+00  0.8040000E+02  0.7957747E-01  0.1297830E+00
       21   -1    0    0  503  502  0.00000000000E+00  0.00000000000E+00  0.95193887310E+02  0.95193887310E+02  0.00000000000E+00 0.  1.
       21   -1    0    0  501  503  0.00000000000E+00  0.00000000000E+00 -0.34011147562E+03  0.34011147562E+03  0.00000000000E+00 0. -1.
       24    2    1    2    0    0 -0.12206595220E+01  0.24065624133E+02  0.45349169449E+01  0.85636108419E+02  0.82050797186E+02 0.  0.
      -11    1    3    3    0    0  0.14065359298E+02  0.29294371392E+02  0.37078418167E+02  0.49303180639E+02  0.00000000000E+00 0.  1.
       12    1    3    3    0    0 -0.15286018820E+02 -0.52287472583E+01 -0.32543501222E+02  0.36332927780E+02  0.00000000000E+00 0. -1.
        1    1    1    2  501    0  0.39642947156E+02 -0.34356079772E+02 -0.28891474014E+03  0.29363860534E+03  0.00000000000E+00 0. -1.
       -2    1    1    2    0  502 -0.38422287634E+02  0.10290455639E+02  0.39462234885E+02  0.56030649169E+02  0.00000000000E+00 0.  1.
</event>
<event>
 7   1  0.9172800E+00  0.8040000E+02  0.7957747E-01  0.1297830E+00
       21   -1    0    0  503  502  0.00000000000E+00  0.00000000000E+00  0.29099764215E+02  0.29099764215E+02  0.00000000000E+00 0. -1.
       -1   -1    0    0    0  501  0.00000000000E+00  0.00000000000E+00 -0.12400749321E+03  0.12400749321E+03  0.00000000000E+00 0.  1.
       24    2    1    2    0    0 -0.45252701372E+01 -0.26819865920E+01 -0.80113019195E+02  0.11281237678E+03  0.79251910939E+02 0.  0.
      -11    1    3    3    0    0  0.94461547919E+01  0.55463576759E+01 -0.92036376215E+02  0.92685956167E+02  0.00000000000E+00 0.  1.
       12    1    3    3    0    0 -0.13971424929E+02 -0.82283442679E+01  0.11923357019E+02  0.20126420609E+02  0.00000000000E+00 0. -1.
       21    1    1    2  503  501 -0.14585003996E+02 -0.68538685321E+01 -0.59477780278E+01  0.17177715765E+02  0.00000000000E+00 0. -1.
       -2    1    1    2    0  502  0.19110274134E+02  0.95358551241E+01 -0.88469317704E+01  0.23117164882E+02  0.00000000000E+00 0.  1.
</event>
<event>
 7   2  0.9172800E+00  0.8040000E+02  0.7957747E-01  0.1297830E+00
       21   -1    0    0  503  502  0.00000000000E+00  0.00000000000E+00  0.69122870780E+03  0.69122870780E+03  0.00000000000E+00 0.  1.
       21   -1    0    0  501  503  0.00000000000E+00  0.00000000000E+00 -0.59022374203E+02  0.59022374203E+02  0.00000000000E+00 0. -1.
      -24    2    1    2    0    0  0.13534010482E+02 -0.47577199304E+02  0.11985131376E+03  0.15337194301E+03  0.81925918723E+02 0.  0.
       11    1    3    3    0    0  0.34582004610E+02 -0.40959783977E+01  0.90202991081E+02  0.96691631912E+02  0.00000000000E+00 0. -1.
      -12    1    3    3    0    0 -0.21047994128E+02 -0.43481220906E+02  0.29648322682E+02  0.56680311098E+02  0.00000000000E+00 0.  1.
        2    1    1    2  501    0 -0.16473080154E+02  0.22362646609E+02 -0.37373815780E+02  0.46564497625E+02  0.00000000000E+00 0. -1.
       -1    1    1    2    0  502  0.29390696718E+01  0.25214552695E+02  0.54972883562E+03  0.55031464137E+03  0.00000000000E+00 0.  1.
</event>
<event>
 7   1  0.9172800E+00  0.8040000E+02  0.7957747E-01  0.1297830E+00
       21   -1    0    0  503  502  0.00000000000E+00  0.00000000000E+00  0.89880127361E+01  0.89880127361E+01  0.00000000000E+00 0.  1.
        2   -1    0    0  502    0  0.00000000000E+00  0.00000000000E+00 -0.81852854727E+03  0.81852854727E+03  0.00000000000E+00 0. -1.
       24    2    1    2    0    0 -0.57211869622E+02  0.20109994950E+02 -0.43340382629E+03  0.44498656164E+03  0.80601200219E+02 0.  0.
      -11    1    3    3    0    0 -0.40209121780E+02 -0.11188329188E+02 -0.84257137291E+02  0.94027747866E+02  0.00000000000E+00 0.  1.
       12    1    3    3    0    0 -0.17002747842E+02  0.31298324137E+02 -0.34914668900E+03  0.35095881378E+03  0.00000000000E+00 0. -1.
       21    1    1    2  503  501  0.29212608787E+02 -0.21470171801E+02 -0.13550493555E+03  0.14027092481E+03  0.00000000000E+00 0.  1.
        1    1    1    2  501    0  0.27999260834E+02  0.13601768510E+01 -0.24063177269E+03  0.24225907355E+03  0.00000000000E+00 0. -1.
</event>
<event>
 7   1  0.9172800E+00  0.8040000E+02  0.7957747E-01  0.1297830E+00
       21   -1    0    0  503  502  0.00000000000E+00  0.00000000000E+00  0.80026446453E+02  0.80026446453E+02  0.00000000000E+00 0.  1.
       -3   -1    0    0    0  501  0.00000000000E+00  0.00000000000E+00 -0.12468571266E+03  0.12468571266E+03  0.00000000000E+00 0.  1.
       24    2    1    2    0    0 -0.62993578287E+02 -0.26324223404E+02 -0.60330262670E+02  0.12200839464E+03  0.81148950237E+02 0.  0.
      -11    1    3    3    0    0 -0.66180072710E+02  0.12262715121E+02 -0.39538152036E+02  0.78060500078E+02  0.00000000000E+00 0.  1.
       12    1    3    3    0    0  0.31864944228E+01 -0.38586938525E+02 -0.20792110633E+02  0.43947894557E+02  0.00000000000E+00 0. -1.
       21    1    1    2  503  501  0.14840952533E+02 -0.25980292625E+01  0.21475667087E+02  0.26233716949E+02  0.00000000000E+00 0.  1.
       -4    1    1    2    0  502  0.48152625754E+02  0.28922252666E+02 -0.58046706202E+01  0.56470047524E+02  0.00000000000E+00 0.  1.
</event>
<event>
 7   1  0.9172800E+00  0.8040000E+02  0.7957747E-01  0.1297830E+00
        2   -1    0    0  503    0  0.00000000000E+00  0.00000000000E+00  0.94721887164E+03  0.94721887164E+03  0.00000000000E+00 0. -1.
       21   -1    0    0  501  502  0.00000000000E+00  0.00000000000E+00 -0.36181641885E+02  0.36181641885E+02  0.00000000000E+00 0. -1.
       24    2    1    2    0    0  0.85695301235E+02 -0.58205970787E+02  0.82160032498E+03  0.83218280920E+03  0.82277057704E+02 0.  0.
      -11    1    3    3    0    0  0.17061777586E+02  0.80228674031E+01  0.34420340941E+02  0.39245770808E+02  0.00000000000E+00 0.  1.
       12    1    3    3    0    0  0.68633523649E+02 -0.66228838190E+02  0.78717998404E+03  0.79293703839E+03  0.00000000000E+00 0. -1.
       21    1    1    2  503  502 -0.19637543688E+01  0.21419968876E+02  0.44264806760E+02  0.49214271461E+02  0.00000000000E+00 0. -1.
        1    1    1    2  501    0 -0.83731546866E+02  0.36786001911E+02  0.45172098007E+02  0.10200343286E+03  0.00000000000E+00 0. -1.
</event>
<event>
 7   1  0.9172800E+00  0.8040000E+02  0.7957747E-01  0.1297830E+00
       -1   -1    0    0    0  501  0.00000000000E+00  0.00000000000E+00  0.20614603106E+03  0.20614603106E+03  0.00000000000E+00 0.  1.
        2   -1    0    0  503    0  0.00000000000E+00  0.00000000000E+00 -0.50543405034E+03  0.50543405034E+03  0.00000000000E+00 0. -1.
       24    2    1    2    0    0  0.46715187707E+02  0.99336339617E+01 -0.10330606390E+03  0.13944730484E+03  0.80575567902E+02 0.  0.
      -11    1    3    3    0    0  0.48509071193E+02  0.10404390407E+02 -0.16010051695E+02  0.52131593904E+02  0.00000000000E+00 0.  1.
       12    1    3    3    0    0 -0.17938834855E+01 -0.47075644546E+00 -0.87296012204E+02  0.87315710936E+02  0.00000000000E+00 0. -1.
       21    1    1    2  502  501 -0.18816624531E+02 -0.42749159464E+02  0.18393981140E+03  0.18977726474E+03  0.00000000000E+00 0.  1.
       21    1    1    2  503  502 -0.27898563176E+02  0.32815525502E+02 -0.37992176678E+03  0.38235551181E+03  0.00000000000E+00 0. -1.
</event>
<event>
 7   2  0.9172800E+00  0.8040000E+02  0.7957747E-01  0.1297830E+00
        1   -1    0    0  503    0  0.00000000000E+00  0.00000000000E+00  0.72601686004E+02  0.72601686004E+02  0.00000000000E+00 0. -1.
       -2   -1    0    0    0  501  0.00000000000E+00  0.00000000000E+00 -0.69435790244E+02  0.69435790244E+02  0.00000000000E+00 0.  1.
      -24    2    1    2    0    0 -0.19139911799E+02  0.16392448404E+02 -0.53707337305E+01  0.84190279326E+02  0.80150544377E+02 0.  0.
       11    1    3    3    0    0 -0.36196850293E+02 -0.20534546691E+02  0.57754374636E+01  0.42014702865E+02  0.00000000000E+00 0. -1.
      -12    1    3    3    0    0  0.17056938494E+02  0.36926995095E+02 -0.11146171194E+02  0.42175576461E+02  0.00000000000E+00 0.  1.
       21    1    1    2  502  501 -0.83461093693E+01 -0.26479577614E+02  0.19180785766E+01  0.27829922703E+02  0.00000000000E+00 0. -1.
       21    1    1    2  503  502  0.27486021168E+02  0.10087129210E+02  0.66185509143E+01  0.30017274219E+02  0.00000000000E+00 0.  1.
</event>
<event>
 7   2  0.9172800E+00  0.8040000E+02  0.7957747E-01  0.1297830E+00
       21   -1    0    0  501  502  0.00000000000E+00  0.00000000000E+00  0.90549091613E+02  0.90549091613E+02  0.00000000000E+00 0. -1.
        1   -1    0    0  503    0  0.00000000000E+00  0.00000000000E+00 -0.70235768865E+02  0.70235768865E+02  0.00000000000E+00 0. -1.
      -24    2    1    2    0    0  0.20253378478E+02 -0.37754851749E+01 -0.48531403560E+01  0.83460040379E+02  0.80731479242E+02 0.  0.
       11    1    3    3    0    0 -0.12318338675E+02  0.96321989816E+01  0.30048435424E+02  0.33873724276E+02  0.00000000000E+00 0. -1.
      -12    1    3    3    0    0  0.32571717153E+02 -0.13407684156E+02 -0.34901575780E+02  0.49586316102E+02  0.00000000000E+00 0.  1.
       21    1    1    2  503  502 -0.36455787735E+02 -0.16214067974E+02  0.31489239113E+02  0.50828069406E+02  0.00000000000E+00 0. -1.
        2    1    1    2  501    0  0.16202409257E+02  0.19989553149E+02 -0.63227760094E+01  0.26496750693E+02  0.00000000000E+00 0. -1.
</event>
<event>
 7   1  0.9172800E+00  0.8040000E+02  0.7957747E-01  0.1297830E+00
       -1   -1    0    0    0  501  0.00000000000E+00  0.00000000000E+00  0.25874512461E+02  0.25874512461E+02  0.00000000000E+00 0.  1.
        2   -1    0    0  503    0  0.00000000000E+00  0.00000000000E+00 -0.53201440449E+03  0.53201440449E+03  0.00000000000E+00 0. -1.
       24    2    1    2    0    0 -0.13487958180E+02  0.37116424970E+02 -0.30858058390E+03  0.32091903845E+03  0.78787679616E+02 0.  0.
      -11    1    3    3    0    0  0.99258099969E+00 -0.18835718583E+02 -0.16602634593E+03  0.16709433579E+03  0.00000000000E+00 0.  1.
       12    1    3    3    0    0 -0.14480539180E+02  0.55952143553E+02 -0.14255423797E+03  0.15382470265E+03  0.00000000000E+00 0. -1.
       21    1    1    2  502  501  0.31259227361E+02 -0.11462942382E+02  0.35227234203E+01  0.33480560383E+02  0.00000000000E+00 0.  1.
       21    1    1    2  503  502 -0.17771269181E+02 -0.25653482587E+02 -0.20108203156E+03  0.20348931813E+03  0.00000000000E+00 0. -1.
</event>
<event>
 7   2  0.9172800E+00  0.8040000E+02  0.7957747E-01  0.1297830E+00
       21   -1    0    0  503  502  0.00000000000E+00  0.00000000000E+00  0.69640082154E+02  0.69640082154E+02  0.00000000000E+00 0. -1.
        1   -1    0    0  502    0  0.00000000000E+00  0.00000000000E+00 -0.31432360015E+03  0.31432360015E+03  0.00000000000E+00 0. -1.
      -24    2    1    2    0    0 -0.45205205293E+02  0.86012803180E+02 -0.15471743251E+03  0.19953406848E+03  0.80216255617E+02 0.  0.
       11    1    3    3    0    0 -0.23631828857E+02  0.98127546732E+02 -0.12972881019E+03  0.16436861914E+03  0.00000000000E+00 0. -1.
      -12    1    3    3    0    0 -0.21573376436E+02 -0.12114743552E+02 -0.24988622313E+02  0.35165449340E+02  0.00000000000E+00 0.  1.
       21    1    1    2  503  501  0.20428661239E+02 -0.21773119407E+02  0.32377729212E+02  0.44042210181E+02  0.00000000000E+00 0. -1.
        2    1    1    2  501    0  0.24776544054E+02 -0.64239683774E+02 -0.12234381470E+03  0.14038740364E+03  0.00000000000E+00 0. -1.
</event>
<event>
 7   1  0.9172800E+00  0.8040000E+02  0.7957747E-01  0.1297830E+00
       -1   -1    0    0    0  501  0.00000000000E+00  0.00000000000E+00  0.36547575126E+02  0.36547575126E+02  0.00000000000E+00 0.  1.
       21   -1    0    0  503  502  0.00000000000E+00  0.00000000000E+00 -0.34142982586E+03  0.34142982586E+03  0.00000000000E+00 0. -1.
       24    2    1    2    0    0 -0.45305505960E+02  0.49697536108E+01 -0.59260551068E+02  0.11060460889E+03  0.81512448575E+02 0.  0.
      -11    1    3    3    0    0 -0.45389674638E+02  0.13826199967E+02  0.31646901279E+01  0.47554196796E+02  0.00000000000E+00 0.  1.
       12    1    3    3    0    0  0.84168677304E-01 -0.88564463566E+01 -0.62425241196E+02  0.63050412091E+02  0.00000000000E+00 0. -1.
       21    1    1    2  503  501  0.44002193793E+01  0.35197954612E+02 -0.16296254465E+03  0.16677844254E+03  0.00000000000E+00 0. -1.
       -2    1    1    2    0  502  0.40905286581E+02 -0.40167708223E+02 -0.82659155022E+02  0.10059434956E+03  0.00000000000E+00 0.  1.
</event>
<event>
 7   1  0.9172800E+00  0.8040000E+02  0.7957747E-01  0.1297830E+00
        2   -1    0    0  501    0  0.00000000000E+00  0.00000000000E+00  0.14377761748E+04  0.14377761748E+04  0.00000000000E+00 0. -1.
        2   -1    0    0  502    0  0.00000000000E+00  0.00000000000E+00 -0.10140709492E+03  0.10140709492E+03  0.00000000000E+00 0. -1.
       24    2    1    2    0    0  0.17647292273E+02  0.32807947986E+02  0.13301733933E+04  0.13330952657E+04  0.79962133510E+02 0.  0.
      -11    1    3    3    0    0 -0.14545248143E+02  0.10460894171E+02  0.68216277549E+02  0.70529816908E+02  0.00000000000E+00 0.  1.
       12    1    3    3    0    0  0.32192540416E+02  0.22347053815E+02  0.12619571158E+04  0.12625654488E+04  0.00000000000E+00 0. -1.
        2    1    1    2  501    0  0.52337742774E+01 -0.32492083025E+02 -0.95936031497E+02  0.10142410952E+03  0.00000000000E+00 0. -1.
        1    1    1    2  502    0 -0.22881066550E+02 -0.31586496075E+00  0.10213171809E+03  0.10466389453E+03  0.00000000000E+00 0. -1.
</event>
<event>
 7   1  0.9172800E+00  0.8040000E+02  0.7957747E-01  0.1297830E+00
       21   -1    0    0  503  502  0.00000000000E+00  0.00000000000E+00  0.10816381523E+03  0.10816381523E+03  0.00000000000E+00 0.  1.
       -1   -1    0    0    0  501  0.00000000000E+00  0.00000000000E+00 -0.88355246492E+03  0.88355246492E+03  0.00000000000E+00 0.  1.
       24    2    1    2    0    0 -0.57264212808E+02 -0.16474141612E+01 -0.82141891843E+03  0.82744405772E+03  0.81564238835E+02 0.  0.
      -11    1    3    3    0    0 -0.34483488355E+02 -0.34677614238E+02 -0.62832695294E+03  0.63022726670E+03  0.00000000000E+00 0.  1.
       12    1    3    3    0    0 -0.22780724453E+02  0.33030200076E+02 -0.19309196549E+03  0.19721679102E+03  0.00000000000E+00 0. -1.
       21    1    1    2  503  501 -0.82672705394E+00 -0.24654029110E+02  0.85695066557E+02  0.89174823023E+02  0.00000000000E+00 0.  1.
       -2    1    1    2    0  502  0.58090939862E+02  0.26301443271E+02 -0.39664797813E+02  0.75097399407E+02  0.00000000000E+00 0.  1.
</event>
<event>
 7   1  0.9172800E+00  0.8040000E+02  0.7957747E-01  0.1297830E+00
        3   -1    0    0  502    0  0.00000000000E+00  0.00000000000E+00  0.10723494246E+03  0.10723494246E+03  0.00000000000E+00 0.  1.
        2   -1    0    0  501    0  0.00000000000E+00  0.00000000000E+00 -0.49230577920E+03  0.49230577920E+03  0.00000000000E+00 0. -1.
       24    2    1    2    0    0  0.35226574237E+01 -0.10420606541E+02 -0.29890530020E+03  0.31039508737E+03  0.82944159668E+02 0.  0.
      -11    1    3    3    0    0  0.11746048925E+02  0.13307509223E+01 -0.69663781200E+00  0.11841700368E+02  0.00000000000E+00 0.  1.
       12    1    3    3    0    0 -0.82233915016E+01 -0.11751357463E+02 -0.29820866238E+03  0.29855338700E+03  0.00000000000E+00 0. -1.
        3    1    1    2  501    0  0.23400113034E+02 -0.41792371358E+01  0.98821652182E+02  0.10164029837E+03  0.00000000000E+00 0.  1.
        1    1    1    2  502    0 -0.26922770458E+02  0.14599843677E+02 -0.18498718873E+03  0.18750533592E+03  0.00000000000E+00 0. -1.
</event>
<event>
 7   1  0.9172800E+00  0.8040000E+02  0.7957747E-01  0.1297830E+00
       21   -1    0    0  501  502  0.00000000000E+00  0.00000000000E+00  0.63109757429E+02  0.63109757429E+02  0.00000000000E+00 0.  1.
        2   -1    0    0  503    0  0.00000000000E+00  0.00000000000E+00 -0.34364146381E+03  0.34364146381E+03  0.00000000000E+00 0. -1.
       24    2    1    2    0    0 -0.59773961499E+02 -0.82117317582E+02 -0.99581852576E+02  0.16568048180E+03  0.84954672419E+02 0.  0.
      -11    1    3    3    0    0 -0.35747502470E+02 -0.83457238030E+02 -0.35947990329E+02  0.97648617610E+02  0.00000000000E+00 0.  1.
       12    1    3    3    0    0 -0.24026459029E+02  0.13399204476E+01 -0.63633862247E+02  0.68031864187E+02  0.00000000000E+00 0. -1.
       21    1    1    2  503  502  0.63867524730E+02 -0.10301903765E+02 -0.55747084457E+02  0.85398637939E+02  0.00000000000E+00 0.  1.
        1    1    1    2  501    0 -0.40935632311E+01  0.92419221347E+02 -0.12520276935E+03  0.15567210150E+03  0.00000000000E+00 0. -1.
</event>
<event>
 7   2  0.9172800E+00  0.8040000E+02  0.7957747E-01  0.1297830E+00
       21   -1    0    0  501  502  0.00000000000E+00  0.00000000000E+00  0.37546700240E+02  0.37546700240E+02  0.00000000000E+00 0.  1.
        1   -1    0    0  503    0  0.00000000000E+00  0.00000000000E+00 -0.13009074934E+04  0.13009074934E+04  0.00000000000E+00 0. -1.
      -24    2    1    2    0    0  0.25464111217E+00  0.56653613534E+01 -0.11218480787E+04  0.11251948278E+04  0.86533968585E+02 0.  0.
       11    1    3    3    0    0 -0.36715468382E+02 -0.12830169209E+02 -0.33284950852E+03  0.33511406145E+03  0.00000000000E+00 0. -1.
      -12    1    3    3    0    0  0.36970109494E+02  0.18495530563E+02 -0.78899857019E+03  0.79008076638E+03  0.00000000000E+00 0.  1.
       21    1    1    2  503  502 -0.17101039746E+02  0.14992377363E+02  0.31140272128E+02  0.38560776543E+02  0.00000000000E+00 0.  1.
        2    1    1    2  501    0  0.16846398634E+02 -0.20657738716E+02 -0.17265298661E+03  0.17469858929E+03  0.00000000000E+00 0. -1.
</event>
<event>
 7   2  0.9172800E+00  0.8040000E+02  0.7957747E-01  0.1297830E+00
        1   -1    0    0  501    0  0.00000000000E+00  0.00000000000E+00  0.45367189678E+02  0.45367189678E+02  0.00000000000E+00 0. -1.
       -4   -1    0    0    0  501  0.00000000000E+00  0.00000000000E+00 -0.13003926747E+03  0.13003926747E+03  0.00000000000E+00 0.  1.
      -24    2    1    2    0    0 -0.31644330690E+02 -0.86387267955E+01 -0.62936171877E+02  0.10794166509E+03  0.81329269435E+02 0.  0.
       11    1    3    3    0    0 -0.42864067631E+02 -0.55787472640E+01 -0.77840499250E+02  0.89037037453E+02  0.00000000000E+00 0. -1.
      -12    1    3    3    0    0  0.11219736940E+02 -0.30599795314E+01  0.14904327373E+02  0.18904627639E+02  0.00000000000E+00 0.  1.
        1    1    1    2  502    0  0.20827902542E+01  0.16898171413E+02  0.12770099773E+02  0.21282895962E+02  0.00000000000E+00 0. -1.
       -3    1    1    2    0  502  0.29561540436E+02 -0.82594446171E+01 -0.34506005692E+02  0.46181896097E+02  0.00000000000E+00 0.  1.
</event>
<event>
 7   1  0.9172800E+00  0.8040000E+02  0.7957747E-01  0.1297830E+00
        2   -1    0    0  502    0  0.00000000000E+00  0.00000000000E+00  0.14192855094E+04  0.14192855094E+04  0.00000000000E+00 0. -1.
       21   -1    0    0  503  502  0.00000000000E+00  0.00000000000E+00 -0.81069705418E+01  0.81069705418E+01  0.00000000000E+00 0. -1.
       24    2    1    2    0    0 -0.68734084011E+02  0.39985264118E+01  0.93767500337E+03  0.94366026969E+03  0.80746084310E+02 0.  0.
      -11    1    3    3    0    0 -0.15832673173E+02 -0.36159636249E+02  0.37964655623E+03  0.38169320205E+03  0.00000000000E+00 0.  1.
       12    1    3    3    0    0 -0.52901410839E+02  0.40158162661E+02  0.55802844713E+03  0.56196706764E+03  0.00000000000E+00 0. -1.
       21    1    1    2  503  501  0.33702224170E+01 -0.14707392060E+02  0.18223141810E+02  0.23659008385E+02  0.00000000000E+00 0.  1.
        1    1    1    2  501    0  0.65363861594E+02  0.10708865648E+02  0.45528039366E+03  0.46007320184E+03  0.00000000000E+00 0. -1.
</event>
<event>
 7   1  0.9172800E+00  0.8040000E+02  0.7957747E-01  0.1297830E+00
       -3   -1    0    0    0  501  0.00000000000E+00  0.00000000000E+00  0.42506730493E+02  0.42506730493E+02  0.00000000000E+00 0.  1.
        1   -1    0    0  501    0  0.00000000000E+00  0.00000000000E+00 -0.27093908121E+03  0.27093908121E+03  0.00000000000E+00 0. -1.
       24    2    1    2    0    0  0.63085852047E+01  0.87614282544E+00  0.33350008075E+01  0.79436751798E+02  0.79110741573E+02 0.  0.
      -11    1    3    3    0    0 -0.28216013014E+02  0.31440551022E+01  0.25653421652E+02  0.38263906169E+02  0.00000000000E+00 0.  1.
       12    1    3    3    0    0  0.34524598218E+02 -0.22679122768E+01 -0.22318420844E+02  0.41172845629E+02  0.00000000000E+00 0. -1.
        1    1    1    2  502    0 -0.98245732028E+01  0.13580205077E+02 -0.14622888093E+03  0.14718637786E+03  0.00000000000E+00 0. -1.
       -4    1    1    2    0  502  0.35159879980E+01 -0.14456347902E+02 -0.85538470594E+02  0.86822682047E+02  0.00000000000E+00 0.  1.
</event>
<event>
 7   2  0.9172800E+00  0.8040000E+02  0.7957747E-01  0.1297830E+00
        1   -1    0    0  501    0  0.00000000000E+00  0.00000000000E+00  0.31209935089E+03  0.31209935089E+03  0.00000000000E+00 0.  1.
        1   -1    0    0  502    0  0.00000000000E+00  0.00000000000E+00 -0.64731675555E+02  0.64731675555E+02  0.00000000000E+00 0. -1.
      -24    2    1    2    0    0  0.82603234821E+01 -0.21566495252E+02 -0.19912579425E+02  0.85993718047E+02  0.80405609647E+02 0.  0.
       11    1    3    3    0    0 -0.19615039209E+01 -0.51040937581E+02 -0.19841606334E+02  0.54797026824E+02  0.00000000000E+00 0. -1.
      -12    1    3    3    0    0  0.10221827403E+02  0.29474442330E+02 -0.70973090620E-01  0.31196691223E+02  0.00000000000E+00 0.  1.
        2    1    1    2  501    0 -0.25929593166E+02  0.31591442273E+01  0.41214966188E+01  0.26444483893E+02  0.00000000000E+00 0. -1.
        1    1    1    2  502    0  0.17669269683E+02  0.18407351024E+02  0.26315875814E+03  0.26439282450E+03  0.00000000000E+00 0.  1.
</event>
<event>
 7   1  0.9172800E+00  0.8040000E+02  0.7957747E-01  0.1297830E+00
        2   -1    0    0  503    0  0.00000000000E+00  0.00000000000E+00  0.50884729178E+03  0.50884729178E+03  0.00000000000E+00 0. -1.
       21   -1    0    0  501  502  0.00000000000E+00  0.00000000000E+00 -0.60407297527E+02  0.60407297527E+02  0.00000000000E+00 0. -1.
       24    2    1    2    0    0 -0.84270089179E+02  0.70335569435E+02  0.90199180317E+02  0.16685226167E+03  0.87494256021E+02 0.  0.
      -11    1    3    3    0    0  0.38737916858E+01 -0.15342041797E+02  0.29083815365E+01  0.16088604405E+02  0.00000000000E+00 0.  1.
       12    1    3    3    0    0 -0.88143880865E+02  0.85677611232E+02  0.87290798781E+02  0.15076365727E+03  0.00000000000E+00 0. -1.
       21    1    1    2  503  502  0.26556730601E+02  0.73053965220E+00  0.28204382491E+03  0.28329227451E+03  0.00000000000E+00 0. -1.
        1    1    1    2  501    0  0.57713358577E+02 -0.71066109087E+02  0.76196989029E+02  0.11911005313E+03  0.00000000000E+00 0. -1.
</event>
<event>
 7   1  0.9172800E+00  0.8040000E+02  0.7957747E-01  0.1297830E+00
       -1   -1    0    0    0  501  0.00000000000E+00  0.00000000000E+00  0.92160748591E+02  0.92160748591E+02  0.00000000000E+00 0.  1.
        1   -1    0    0  501    0  0.00000000000E+00  0.00000000000E+00 -0.21155198301E+03  0.21155198301E+03  0.00000000000E+00 0. -1.
       24    2    1    2    0    0 -0.24718740620E+00  0.50963083568E+01  0.68941444839E+02  0.10542907244E+03  0.79601086916E+02 0.  0.
      -11    1    3    3    0    0 -0.91693900689E+00 -0.22182033487E+02  0.74365437818E+02  0.77608644678E+02  0.00000000000E+00 0.  1.
       12    1    3    3    0    0  0.66975160069E+00  0.27278341844E+02 -0.54239929792E+01  0.27820427761E+02  0.00000000000E+00 0. -1.
        1    1    1    2  502    0 -0.40772603490E+01  0.28178102478E+02 -0.86278549001E+02  0.90854925727E+02  0.00000000000E+00 0. -1.
       -2    1    1    2    0  502  0.43244477552E+01 -0.33274410835E+02 -0.10205413026E+03  0.10742873343E+03  0.00000000000E+00 0.  1.
</event>
<event>
 7   2  0.9172800E+00  0.8040000E+02  0.7957747E-01  0.1297830E+00
        1   -1    0    0  503    0  0.00000000000E+00  0.00000000000E+00  0.58616033618E+03  0.58616033618E+03  0.00000000000E+00 0. -1.
       21   -1    0    0  501  502  0.00000000000E+00  0.00000000000E+00 -0.51595030067E+02  0.51595030067E+02  0.00000000000E+00 0. -1.
      -24    2    1    2    0    0  0.22292492433E+02 -0.23169962177E+02  0.50315992176E+03  0.51021130174E+03  0.78178406163E+02 0.  0.
       11    1    3    3    0    0  0.44470225020E+02  0.76580636196E+00  0.38725203633E+03  0.38979780274E+03  0.00000000000E+00 0. -1.
      -12    1    3    3    0    0 -0.22177732587E+02 -0.23935768539E+02  0.11590788543E+03  0.12041349901E+03  0.00000000000E+00 0.  1.
       21    1    1    2  503  502 -0.24373451381E+02  0.37310388170E+02 -0.36837930244E+02  0.57820094278E+02  0.00000000000E+00 0. -1.
        2    1    1    2  501    0  0.20809589480E+01 -0.14140425994E+02  0.68243314598E+02  0.69723970231E+02  0.00000000000E+00 0. -1.
</event>
<event>
 7   1  0.9172800E+00  0.8040000E+02  0.7957747E-01  0.1297830E+00
       21   -1    0    0  503  502  0.00000000000E+00  0.00000000000E+00  0.49158992299E+03  0.49158992299E+03  0.00000000000E+00 0.  1.
       -3   -1    0    0    0  501  0.00000000000E+00  0.00000000000E+00 -0.16703241774E+02  0.16703241774E+02  0.00000000000E+00 0.  1.
       24    2    1    2    0    0 -0.20294276318E+02  0.25375071763E+02  0.13909773408E+03  0.16056069749E+03  0.73319888409E+02 0.  0.
      -11    1    3    3    0    0 -0.34022280399E+02 -0.14905381603E+02  0.73791569094E+02  0.82612841820E+02  0.00000000000E+00 0.  1.
       12    1    3    3    0    0  0.13728004081E+02  0.40280453366E+02  0.65306164982E+02  0.77947855673E+02  0.00000000000E+00 0. -1.
       21    1    1    2  503  501 -0.16100912394E+02 -0.16403028831E+02  0.22348683218E+02  0.32058733230E+02  0.00000000000E+00 0. -1.
       -4    1    1    2    0  502  0.36395188712E+02 -0.89720429320E+01  0.31344026392E+03  0.31567373404E+03  0.00000000000E+00 0.  1.
</event>
</LesHouchesEvents>
