<LesHouchesEvents version="1.0">
<!--
file generated with POWHEG-BOX version 1.0
*** Events obtained merging wp and wm samples ***
*** Input file for wp events was: ***
!Single vector boson production parameters
idvecbos  24   ! PDG code for vector boson to be produced ( W+:24 W-:-24 )
vdecaymode 1      !(1:electronic decay, 2: muonic decay, 3: tauonic decay)
 
numevts 623
ih1   1          ! hadron 1 (1 for protons, -1 for antiprotons)
ih2   1          ! hadron 2 (1 for protons, -1 for antiprotons)
ndns1 131        ! pdf set for hadron 1 (mlm numbering)
ndns2 131        ! pdf set for hadron 2 (mlm numbering)
ebeam1 3500d0    ! energy of beam 1
ebeam2 3500d0    ! energy of beam 2
! To be set only if using LHA pdfs
lhans1  10050    ! pdf set for hadron 1 (LHA numbering)
lhans2  10050    ! pdf set for hadron 2 (LHA numbering)
 
ncall1 12000   ! number of calls for initializing the integration grid
itmx1    5     ! number of iterations for initializing the integration grid
ncall2 20000   ! number of calls for computing the integral and finding upper bound
itmx2    5     ! number of iterations for computing the integral and finding upper bound
foldcsi   1    ! number of folds on csi integration
foldy     1    ! number of folds on  y  integration
foldphi   1    ! number of folds on phi integration
nubound 20000  ! number of bbarra calls to setup norm of upper bounding function
icsimax  1     ! <= 100, number of csi subdivision when computing the upper bounds
iymax    1     ! <= 100, number of y subdivision when computing the upper bounds
xupbound 2d0   ! increase upper bound for radiation generation
 
############################################################################
 
! W production
 
# Default
 
withdamp  0
ptsqmin 0.8
withnegweights 0
hfact 0
 
# Integration grids
use-old-grid    0
use-old-ubound  0
 
# Use fixed scales
runningscale 0
runningscales 0
#facscfact 1.0
#renscfact 1.13418
#facscfact 0.5
#renscfact 0.56709
facscfact 2.0
renscfact 2.26836
btlscalereal 1
btlscalect 1
ckkwscalup 0
 
masswindow_low  5d0
masswindow_high 5d0
*** Input file for wm events was: ***
!Single vector boson production parameters
idvecbos -24   ! PDG code for vector boson to be produced ( W+:24 W-:-24 )
vdecaymode 1      !(1:electronic decay, 2: muonic decay, 3: tauonic decay)
 
numevts 427
ih1   1           ! hadron 1 (1 for protons, -1 for antiprotons)
ih2   1           ! hadron 2 (1 for protons, -1 for antiprotons)
ndns1 131         ! pdf set for hadron 1 (mlm numbering)
ndns2 131         ! pdf set for hadron 2 (mlm numbering)
ebeam1 3500d0     ! energy of beam 1
ebeam2 3500d0     ! energy of beam 2
! To be set only if using LHA pdfs
lhans1  10050     ! pdf set for hadron 1 (LHA numbering)
lhans2  10050     ! pdf set for hadron 2 (LHA numbering)
 
ncall1 12000   ! number of calls for initializing the integration grid
itmx1    5     ! number of iterations for initializing the integration grid
ncall2 20000   ! number of calls for computing the integral and finding upper bound
itmx2    5     ! number of iterations for computing the integral and finding upper bound
foldcsi   1    ! number of folds on csi integration
foldy     1    ! number of folds on  y  integration
foldphi   1    ! number of folds on phi integration
nubound 2000   ! number of bbarra calls to setup norm of upper bounding function
icsimax  1     ! <= 100, number of csi subdivision when computing the upper bounds
iymax    1     ! <= 100, number of y subdivision when computing the upper bounds
xupbound 2d0   ! increase upper bound for radiation generation
 
############################################################################
 
! W production
 
withdamp  0
ptsqmin 0.8
withnegweights 0
hfact 0
 
# Integration grids
use-old-grid    0
use-old-ubound  0
 
# Use fixed scales
runningscale 0
runningscales 0
#facscfact 1.0
#renscfact 1.13418
#facscfact 0.5
#renscfact 0.56709
facscfact 2.0
renscfact 2.26836
btlscalereal 1
btlscalect 1
ckkwscalup 0
 
masswindow_low  5d0
masswindow_high 5d0
*** End of input files ***
 Random number generator initialized with:            0            -1             0
-->
<init>
     2212     2212  3.50000E+03  3.50000E+03     -1     -1     -1     -1      3      1
  9.62391E+03  1.19770E+01  1.00000E+00    666
</init>
<event>
      6    666  1.00000E+00  1.08102E+01 -1.00000E+00  1.91870E-01
       2    -1     0     0   501     0  0.000000000E+00  0.000000000E+00  1.223562932E+03  1.223562932E+03  0.000000000E+00  0.00000E+00  9.000E+00
      -1    -1     0     0     0   511  0.000000000E+00  0.000000000E+00 -1.736171058E+00  1.736171058E+00  0.000000000E+00  0.00000E+00  9.000E+00
      24     2     1     2     0     0  3.932753134E+00 -1.006945456E+01  1.145984662E+03  1.148690458E+03  7.805167033E+01  0.00000E+00  9.000E+00
     -11     1     3     3     0     0  1.535353801E+01 -4.194455050E+01  6.041563996E+02  6.058052754E+02  5.108846754E-04  0.00000E+00  9.000E+00
      12     1     3     3     0     0 -1.142078487E+01  3.187509593E+01  5.418282621E+02  5.428851828E+02  0.000000000E+00  0.00000E+00  9.000E+00
      21     1     1     2   501   511 -3.932753134E+00  1.006945456E+01  7.584209883E+01  7.660864454E+01  1.907348633E-06  0.00000E+00  9.000E+00
</event>
<event>
      6    666  1.00000E+00  9.68455E+00 -1.00000E+00  1.97321E-01
       2    -1     0     0   501     0  0.000000000E+00  0.000000000E+00  4.093279891E+01  4.093279891E+01  0.000000000E+00  0.00000E+00  9.000E+00
      -1    -1     0     0     0   511  0.000000000E+00  0.000000000E+00 -5.293530882E+01  5.293530882E+01  0.000000000E+00  0.00000E+00  9.000E+00
      24     2     1     2     0     0  8.018900588E+00  5.430269804E+00  7.471815163E-01  7.785732299E+01  7.724903796E+01  0.00000E+00  9.000E+00
     -11     1     3     3     0     0 -1.004301962E+01 -1.046032811E+01 -3.321237731E+01  3.624007056E+01  5.109994876E-04  0.00000E+00  9.000E+00
      12     1     3     3     0     0  1.806192021E+01  1.589059792E+01  3.395955883E+01  4.161725243E+01  6.743495762E-07  0.00000E+00  9.000E+00
      21     1     1     2   501   511 -8.018900588E+00 -5.430269804E+00 -1.274969143E+01  1.601078475E+01  1.685873940E-07  0.00000E+00  9.000E+00
</event>
<event>
      6    666  1.00000E+00  3.28994E+00 -1.00000E+00  2.85089E-01
       3    -1     0     0   501     0  0.000000000E+00  0.000000000E+00  4.614582517E+02  4.614582517E+02  0.000000000E+00  0.00000E+00  9.000E+00
      -4    -1     0     0     0   511  0.000000000E+00  0.000000000E+00 -7.522567148E+00  7.522567148E+00  0.000000000E+00  0.00000E+00  9.000E+00
     -24     2     1     2     0     0 -2.670811055E+00  1.921061204E+00  4.570285646E+02  4.644653328E+02  8.271706464E+01  0.00000E+00  9.000E+00
      11     1     3     3     0     0 -3.620428556E+01 -1.900622102E+01  1.770634566E+02  1.817235659E+02  5.110235148E-04  0.00000E+00  9.000E+00
     -12     1     3     3     0     0  3.353347450E+01  2.092728222E+01  2.799651080E+02  2.827417669E+02  8.529922400E-06  0.00000E+00  9.000E+00
      21     1     1     2   501   511  2.670811055E+00 -1.921061204E+00 -3.092880024E+00  4.515486096E+00  2.598106231E-07  0.00000E+00  9.000E+00
</event>
<event>
      6    666  1.00000E+00  5.15893E+00 -1.00000E+00  2.36080E-01
      -2    -1     0     0     0   501  0.000000000E+00  0.000000000E+00  3.245041249E+00  3.245041249E+00  0.000000000E+00  0.00000E+00  9.000E+00
       1    -1     0     0   511     0  0.000000000E+00  0.000000000E+00 -5.884994808E+02  5.884994808E+02  0.000000000E+00  0.00000E+00  9.000E+00
     -24     2     1     2     0     0 -5.142827138E+00  4.073058287E-01 -5.369645612E+02  5.431798546E+02  8.177285575E+01  0.00000E+00  9.000E+00
      11     1     3     3     0     0 -2.665667384E+01 -2.166202055E+01 -4.421417712E+02  4.434739759E+02  5.111694336E-04  0.00000E+00  9.000E+00
     -12     1     3     3     0     0  2.151384670E+01  2.206932638E+01 -9.482278992E+01  9.970587874E+01  3.568322551E-06  0.00000E+00  9.000E+00
      21     1     1     2   511   501  5.142827138E+00 -4.073058287E-01 -4.828987844E+01  4.856466749E+01  0.000000000E+00  0.00000E+00  9.000E+00
</event>
<event>
      6    666  1.00000E+00  1.99428E+01 -1.00000E+00  1.66430E-01
      21    -1     0     0   511   501  0.000000000E+00  0.000000000E+00  2.024413456E+02  2.024413456E+02  0.000000000E+00  0.00000E+00  9.000E+00
       2    -1     0     0   501     0  0.000000000E+00  0.000000000E+00 -1.655702134E+01  1.655702134E+01  0.000000000E+00  0.00000E+00  9.000E+00
      24     2     1     2     0     0  1.310049319E+01 -1.503642741E+01  1.085143160E+02  1.390994605E+02  8.470883109E+01  0.00000E+00  9.000E+00
     -11     1     3     3     0     0  3.661761301E+01 -2.812831452E+01  1.011559010E+02  1.111960789E+02  5.109985977E-04  0.00000E+00  9.000E+00
      12     1     3     3     0     0 -2.351711981E+01  1.309188711E+01  7.358415008E+00  2.790338159E+01  9.684608465E-07  0.00000E+00  9.000E+00
       1     1     1     2   511     0 -1.310049319E+01  1.503642741E+01  7.737000822E+01  7.989890639E+01  0.000000000E+00  0.00000E+00  9.000E+00
</event>
<event>
      6    666  1.00000E+00  1.95830E+01 -1.00000E+00  1.67086E-01
      21    -1     0     0   511   501  0.000000000E+00  0.000000000E+00  2.501443275E+00  2.501443275E+00  0.000000000E+00  0.00000E+00  9.000E+00
       2    -1     0     0   501     0  0.000000000E+00  0.000000000E+00 -1.488331417E+03  1.488331417E+03  0.000000000E+00  0.00000E+00  9.000E+00
      24     2     1     2     0     0  1.132291296E+01 -1.597764753E+01 -1.415315083E+03  1.417649232E+03  7.892444735E+01  0.00000E+00  9.000E+00
     -11     1     3     3     0     0 -2.775829532E+01 -2.891029684E+01 -7.282750794E+02  7.293770763E+02  5.112263662E-04  0.00000E+00  9.000E+00
      12     1     3     3     0     0  3.908120828E+01  1.293264931E+01 -6.870400032E+02  6.882721557E+02  1.705984480E-05  0.00000E+00  9.000E+00
       1     1     1     2   511     0 -1.132291296E+01  1.597764753E+01 -7.051489148E+01  7.318362863E+01  2.861022949E-06  0.00000E+00  9.000E+00
</event>
<event>
      6    666  1.00000E+00  2.71676E+00 -1.00000E+00  3.10427E-01
      21    -1     0     0   501   511  0.000000000E+00  0.000000000E+00  1.841986583E+02  1.841986583E+02  0.000000000E+00  0.00000E+00  9.000E+00
      -4    -1     0     0     0   501  0.000000000E+00  0.000000000E+00 -1.752649046E+01  1.752649046E+01  0.000000000E+00  0.00000E+00  9.000E+00
     -24     2     1     2     0     0  2.591661599E-01 -2.704367094E+00  7.157337819E+01  1.065875612E+02  7.893528345E+01  0.00000E+00  9.000E+00
      11     1     3     3     0     0  5.015435515E-01 -2.408028860E+01  8.004702646E+01  8.359209466E+01  5.110012675E-04  0.00000E+00  9.000E+00
     -12     1     3     3     0     0 -2.423773917E-01  2.137592151E+01 -8.473648271E+00  2.299546656E+01  3.953724850E-07  0.00000E+00  9.000E+00
      -3     1     1     2     0   511 -2.591661599E-01  2.704367094E+00  9.509878963E+01  9.513758751E+01  1.348699152E-06  0.00000E+00  9.000E+00
</event>
<event>
      6    666  1.00000E+00  9.65102E+00 -1.00000E+00  1.97498E-01
       2    -1     0     0   501     0  0.000000000E+00  0.000000000E+00  6.261311762E+01  6.261311762E+01  0.000000000E+00  0.00000E+00  9.000E+00
      21    -1     0     0   511   501  0.000000000E+00  0.000000000E+00 -3.494524140E+01  3.494524140E+01  0.000000000E+00  0.00000E+00  9.000E+00
      24     2     1     2     0     0 -5.418408936E-01  9.635799553E+00  3.434292251E+01  8.582385999E+01  7.805867276E+01  0.00000E+00  9.000E+00
     -11     1     3     3     0     0  2.931607672E+01 -1.770710437E+00 -1.012055627E+01  3.106434338E+01  5.109983613E-04  0.00000E+00  9.000E+00
      12     1     3     3     0     0 -2.985791762E+01  1.140650999E+01  4.446347878E+01  5.475951662E+01  1.348699152E-06  0.00000E+00  9.000E+00
       1     1     1     2   511     0  5.418408936E-01 -9.635799553E+00 -6.675046285E+00  1.173449903E+01  1.192092896E-07  0.00000E+00  9.000E+00
</event>
<event>
      6    666  1.00000E+00  8.71917E+00 -1.00000E+00  2.02837E-01
       2    -1     0     0   501     0  0.000000000E+00  0.000000000E+00  4.996232894E+01  4.996232894E+01  0.000000000E+00  0.00000E+00  9.000E+00
      -1    -1     0     0     0   511  0.000000000E+00  0.000000000E+00 -4.326625896E+01  4.326625896E+01  0.000000000E+00  0.00000E+00  9.000E+00
      24     2     1     2     0     0 -7.212461460E+00 -4.899415366E+00  1.671704528E+01  7.994537227E+01  7.769027657E+01  0.00000E+00  9.000E+00
     -11     1     3     3     0     0 -4.664758405E+00 -5.051191460E+00 -3.120596529E+01  3.195444845E+01  5.109982640E-04  0.00000E+00  9.000E+00
      12     1     3     3     0     0 -2.547703055E+00  1.517760933E-01  4.792301057E+01  4.799092382E+01  1.348699152E-06  0.00000E+00  9.000E+00
      21     1     1     2   501   511  7.212461460E+00  4.899415366E+00 -1.002097530E+01  1.328321562E+01  2.384185791E-07  0.00000E+00  9.000E+00
</event>
<event>
      6    666  1.00000E+00  1.55129E+00 -1.00000E+00  4.23570E-01
      -2    -1     0     0     0   501  0.000000000E+00  0.000000000E+00  4.949519917E+00  4.949519917E+00  0.000000000E+00  0.00000E+00  9.000E+00
      21    -1     0     0   501   511  0.000000000E+00  0.000000000E+00 -4.018560810E+02  4.018560810E+02  0.000000000E+00  0.00000E+00  9.000E+00
     -24     2     1     2     0     0 -1.370667594E+00  7.264843245E-01 -3.241241959E+02  3.340067054E+02  8.063236549E+01  0.00000E+00  9.000E+00
      11     1     3     3     0     0 -6.330625807E+00 -2.212664683E+01 -2.982264317E+02  2.991131389E+02  5.109843588E-04  0.00000E+00  9.000E+00
     -12     1     3     3     0     0  4.959958214E+00  2.285313116E+01 -2.589776424E+01  3.489356648E+01  9.536743164E-07  0.00000E+00  9.000E+00
      -1     1     1     2     0   511  1.370667594E+00 -7.264843245E-01 -7.278236516E+01  7.279889551E+01  9.536743164E-07  0.00000E+00  9.000E+00
</event>
<event>
      6    666  1.00000E+00  6.95865E+00 -1.00000E+00  2.15846E-01
      -2    -1     0     0     0   501  0.000000000E+00  0.000000000E+00  2.293206799E+01  2.293206799E+01  0.000000000E+00  0.00000E+00  9.000E+00
       1    -1     0     0   511     0  0.000000000E+00  0.000000000E+00 -9.378634084E+01  9.378634084E+01  0.000000000E+00  0.00000E+00  9.000E+00
     -24     2     1     2     0     0 -6.885664360E+00  1.005203974E+00 -4.394747395E+01  8.892634817E+01  7.699410448E+01  0.00000E+00  9.000E+00
      11     1     3     3     0     0  2.775805137E+01 -1.448173237E+01 -3.996761146E+01  5.077046341E+01  5.109988202E-04  0.00000E+00  9.000E+00
     -12     1     3     3     0     0 -3.464371573E+01  1.548693635E+01 -3.979862485E+00  3.815588477E+01  6.542950392E-07  0.00000E+00  9.000E+00
      21     1     1     2   511   501  6.885664360E+00 -1.005203974E+00 -2.690679890E+01  2.779206067E+01  3.371747881E-07  0.00000E+00  9.000E+00
</event>
<event>
      6    666  1.00000E+00  7.80732E+00 -1.00000E+00  2.08998E-01
       2    -1     0     0   501     0  0.000000000E+00  0.000000000E+00  9.927709258E+00  9.927709258E+00  0.000000000E+00  0.00000E+00  9.000E+00
      -1    -1     0     0     0   511  0.000000000E+00  0.000000000E+00 -1.962338242E+02  1.962338242E+02  0.000000000E+00  0.00000E+00  9.000E+00
      24     2     1     2     0     0 -4.544449707E+00 -6.348404357E+00 -1.662235646E+02  1.846147683E+02  7.994613799E+01  0.00000E+00  9.000E+00
     -11     1     3     3     0     0  3.619893890E+01  2.398421175E+00 -9.993308806E+01  1.063143344E+02  5.109879186E-04  0.00000E+00  9.000E+00
      12     1     3     3     0     0 -4.074338861E+01 -8.746825531E+00 -6.629047655E+01  7.830043393E+01  2.523185073E-06  0.00000E+00  9.000E+00
      21     1     1     2   501   511  4.544449707E+00  6.348404357E+00 -2.008255029E+01  2.154676512E+01  2.384185791E-07  0.00000E+00  9.000E+00
</event>
<event>
      6    666  1.00000E+00  1.43042E+01 -1.00000E+00  1.79300E-01
       1    -1     0     0   511     0  0.000000000E+00  0.000000000E+00  5.858805865E+01  5.858805865E+01  0.000000000E+00  0.00000E+00  9.000E+00
      -2    -1     0     0     0   501  0.000000000E+00  0.000000000E+00 -6.626612288E+01  6.626612288E+01  0.000000000E+00  0.00000E+00  9.000E+00
     -24     2     1     2     0     0  1.893779642E+00 -1.417833320E+01 -3.886518028E+01  9.054313753E+01  8.051674349E+01  0.00000E+00  9.000E+00
      11     1     3     3     0     0  8.388813183E+00  3.349397790E+00  2.363781101E+01  2.530487625E+01  5.109987089E-04  0.00000E+00  9.000E+00
     -12     1     3     3     0     0 -6.495033541E+00 -1.752773099E+01 -6.250299129E+01  6.523826128E+01  1.348699152E-06  0.00000E+00  9.000E+00
      21     1     1     2   511   501 -1.893779642E+00  1.417833320E+01  3.118711605E+01  3.431104401E+01  4.768371582E-07  0.00000E+00  9.000E+00
</event>
<event>
      6    666  1.00000E+00  1.02659E+01 -1.00000E+00  1.94391E-01
      -1    -1     0     0     0   501  0.000000000E+00  0.000000000E+00  1.033436933E+03  1.033436933E+03  0.000000000E+00  0.00000E+00  9.000E+00
       2    -1     0     0   511     0  0.000000000E+00  0.000000000E+00 -2.234494629E+00  2.234494629E+00  0.000000000E+00  0.00000E+00  9.000E+00
      24     2     1     2     0     0 -8.868651401E+00  5.170685573E+00  9.828133080E+02  9.862053089E+02  8.107727116E+01  0.00000E+00  9.000E+00
     -11     1     3     3     0     0  1.101602161E+01 -6.610392467E+00  9.035415958E+02  9.036329262E+02  5.111124946E-04  0.00000E+00  9.000E+00
      12     1     3     3     0     0 -1.988467301E+01  1.178107804E+01  7.927171220E+01  8.257238265E+01  2.336015456E-06  0.00000E+00  9.000E+00
      21     1     1     2   511   501  8.868651401E+00 -5.170685573E+00  4.838913045E+01  4.946611884E+01  9.536743164E-07  0.00000E+00  9.000E+00
</event>
<event>
      6    666  1.00000E+00  4.24270E+01 -1.00000E+00  1.43241E-01
       2    -1     0     0   501     0  0.000000000E+00  0.000000000E+00  1.537784104E+03  1.537784104E+03  0.000000000E+00  0.00000E+00  9.000E+00
      21    -1     0     0   511   501  0.000000000E+00  0.000000000E+00 -3.140617597E+00  3.140617597E+00  0.000000000E+00  0.00000E+00  9.000E+00
      24     2     1     2     0     0 -1.010745680E+01 -4.120547065E+01  1.239154054E+03  1.242404947E+03  7.916583802E+01  0.00000E+00  9.000E+00
     -11     1     3     3     0     0  3.302736929E+01 -1.047113220E+01  3.623659317E+02  3.640185712E+02  5.109131583E-04  0.00000E+00  9.000E+00
      12     1     3     3     0     0 -4.313482609E+01 -3.073433845E+01  8.767881224E+02  8.783863754E+02  1.078959322E-05  0.00000E+00  9.000E+00
       1     1     1     2   511     0  1.010745680E+01  4.120547065E+01  2.954894322E+02  2.985197750E+02  3.814697266E-06  0.00000E+00  9.000E+00
</event>
<event>
      6    666  1.00000E+00  6.68637E+00 -1.00000E+00  2.18333E-01
      21    -1     0     0   511   501  0.000000000E+00  0.000000000E+00  6.174284544E+01  6.174284544E+01  0.000000000E+00  0.00000E+00  9.000E+00
       3    -1     0     0   501     0  0.000000000E+00  0.000000000E+00 -5.759070702E+01  5.759070702E+01  0.000000000E+00  0.00000E+00  9.000E+00
     -24     2     1     2     0     0  3.259095878E+00  5.838311888E+00 -2.751145388E+01  8.697168185E+01  8.223433442E+01  0.00000E+00  9.000E+00
      11     1     3     3     0     0  1.076433882E+01 -2.248420712E+01 -4.600408859E+01  5.232386384E+01  5.110003775E-04  0.00000E+00  9.000E+00
     -12     1     3     3     0     0 -7.505242944E+00  2.832251901E+01  1.849263470E+01  3.464781801E+01  7.907449699E-07  0.00000E+00  9.000E+00
       4     1     1     2   511     0 -3.259095878E+00 -5.838311888E+00  3.166359230E+01  3.236187061E+01  3.371747881E-07  0.00000E+00  9.000E+00
</event>
<event>
      6    666  1.00000E+00  1.50857E+01 -1.00000E+00  1.77103E-01
       4    -1     0     0   501     0  0.000000000E+00  0.000000000E+00  5.777447112E+01  5.777447112E+01  0.000000000E+00  0.00000E+00  9.000E+00
      21    -1     0     0   511   501  0.000000000E+00  0.000000000E+00 -5.051720808E+01  5.051720808E+01  0.000000000E+00  0.00000E+00  9.000E+00
      24     2     1     2     0     0 -2.972778613E+00  1.478987965E+01  2.325946505E+01  8.629967105E+01  8.172547067E+01  0.00000E+00  9.000E+00
     -11     1     3     3     0     0 -2.049035668E+01  1.702638700E+01 -2.399443923E+01  3.585367046E+01  5.109993764E-04  0.00000E+00  9.000E+00
      12     1     3     3     0     0  1.751757806E+01 -2.236507345E+00  4.725390428E+01  5.044600060E+01  6.743495762E-07  0.00000E+00  9.000E+00
       3     1     1     2   511     0  2.972778613E+00 -1.478987965E+01 -1.600220201E+01  2.199200814E+01  0.000000000E+00  0.00000E+00  9.000E+00
</event>
<event>
      6    666  1.00000E+00  3.54866E+00 -1.00000E+00  2.76236E-01
      -4    -1     0     0     0   501  0.000000000E+00  0.000000000E+00  1.788159159E+02  1.788159159E+02  0.000000000E+00  0.00000E+00  9.000E+00
       3    -1     0     0   511     0  0.000000000E+00  0.000000000E+00 -1.480384742E+01  1.480384742E+01  0.000000000E+00  0.00000E+00  9.000E+00
     -24     2     1     2     0     0  7.367565269E-01 -3.471332416E+00  1.694994821E+02  1.870848825E+02  7.910806450E+01  0.00000E+00  9.000E+00
      11     1     3     3     0     0  5.455298871E+00 -3.520830883E+01  3.954390477E+01  5.322692647E+01  5.109990427E-04  0.00000E+00  9.000E+00
     -12     1     3     3     0     0 -4.718542344E+00  3.173697642E+01  1.299555773E+02  1.338579560E+02  3.814697266E-06  0.00000E+00  9.000E+00
      21     1     1     2   511   501 -7.367565269E-01  3.471332416E+00 -5.487413631E+00  6.534880816E+00  3.209808354E-07  0.00000E+00  9.000E+00
</event>
<event>
      6    666  1.00000E+00  5.37952E+00 -1.00000E+00  2.33012E-01
       1    -1     0     0   501     0  0.000000000E+00  0.000000000E+00  4.775036252E+01  4.775036252E+01  0.000000000E+00  0.00000E+00  9.000E+00
      21    -1     0     0   511   501  0.000000000E+00  0.000000000E+00 -5.103843463E+01  5.103843463E+01  0.000000000E+00  0.00000E+00  9.000E+00
     -24     2     1     2     0     0  4.419000055E+00 -3.067853540E+00  1.644462435E+01  7.833595881E+01  7.640129244E+01  0.00000E+00  9.000E+00
      11     1     3     3     0     0 -1.491896587E+00  3.268351453E+01 -9.148587993E+00  3.397255569E+01  5.109975687E-04  0.00000E+00  9.000E+00
     -12     1     3     3     0     0  5.910896642E+00 -3.575136807E+01  2.559321234E+01  4.436340312E+01  8.920806376E-07  0.00000E+00  9.000E+00
       2     1     1     2   511     0 -4.419000055E+00  3.067853540E+00 -1.973269646E+01  2.045283834E+01  2.384185791E-07  0.00000E+00  9.000E+00
</event>
<event>
      6    666  1.00000E+00  2.24466E+01 -1.00000E+00  1.62298E-01
      -1    -1     0     0     0   501  0.000000000E+00  0.000000000E+00  1.542634943E+02  1.542634943E+02  0.000000000E+00  0.00000E+00  9.000E+00
      21    -1     0     0   501   511  0.000000000E+00  0.000000000E+00 -2.158757162E+01  2.158757162E+01  0.000000000E+00  0.00000E+00  9.000E+00
      24     2     1     2     0     0 -2.162759896E+01 -6.007931219E+00  1.282857096E+02  1.529792001E+02  8.025935534E+01  0.00000E+00  9.000E+00
     -11     1     3     3     0     0  2.216682800E+01  1.077104177E+01  8.724416638E+01  9.065830449E+01  5.109985977E-04  0.00000E+00  9.000E+00
      12     1     3     3     0     0 -4.379442696E+01 -1.677897299E+01  4.104154318E+01  6.232089564E+01  1.348699152E-06  0.00000E+00  9.000E+00
      -2     1     1     2     0   511  2.162759896E+01  6.007931219E+00  4.390213147E+00  2.287186581E+01  4.256623047E-07  0.00000E+00  9.000E+00
</event>
<event>
      6    666  1.00000E+00  1.73919E+01 -1.00000E+00  1.71492E-01
      -1    -1     0     0     0   511  0.000000000E+00  0.000000000E+00  5.620867873E+00  5.620867873E+00  0.000000000E+00  0.00000E+00  9.000E+00
       2    -1     0     0   501     0  0.000000000E+00  0.000000000E+00 -8.235949877E+02  8.235949877E+02  0.000000000E+00  0.00000E+00  9.000E+00
      24     2     1     2     0     0 -1.484923838E+01 -9.054119519E+00 -8.002198866E+02  8.043624904E+02  7.965345041E+01  0.00000E+00  9.000E+00
     -11     1     3     3     0     0  1.500637603E+01 -3.400557777E+01 -2.475839236E+02  2.503584827E+02  5.110341932E-04  0.00000E+00  9.000E+00
      12     1     3     3     0     0 -2.985561441E+01  2.495145825E+01 -5.526359630E+02  5.540040077E+02  0.000000000E+00  0.00000E+00  9.000E+00
      21     1     1     2   501   511  1.484923838E+01  9.054119519E+00 -1.775423322E+01  2.485336513E+01  1.390207266E-06  0.00000E+00  9.000E+00
</event>
<event>
      6    666  1.00000E+00  2.22106E+01 -1.00000E+00  1.62658E-01
      -4    -1     0     0     0   511  0.000000000E+00  0.000000000E+00  9.148953367E+00  9.148953367E+00  0.000000000E+00  0.00000E+00  9.000E+00
       3    -1     0     0   501     0  0.000000000E+00  0.000000000E+00 -5.272536847E+02  5.272536847E+02  0.000000000E+00  0.00000E+00  9.000E+00
     -24     2     1     2     0     0  1.782011824E+01  1.325719122E+01 -5.036658128E+02  5.099112791E+02  7.639994627E+01  0.00000E+00  9.000E+00
      11     1     3     3     0     0  3.430172483E+01  3.532238199E+01 -3.824302717E+02  3.855868147E+02  5.109985977E-04  0.00000E+00  9.000E+00
     -12     1     3     3     0     0 -1.648160659E+01 -2.206519077E+01 -1.212355412E+02  1.243244644E+02  2.697398305E-06  0.00000E+00  9.000E+00
      21     1     1     2   501   511 -1.782011824E+01 -1.325719122E+01 -1.443891850E+01  2.649135898E+01  2.384185791E-07  0.00000E+00  9.000E+00
</event>
<event>
      6    666  1.00000E+00  3.04715E+01 -1.00000E+00  1.52536E-01
       2    -1     0     0   501     0  0.000000000E+00  0.000000000E+00  5.956520273E+02  5.956520273E+02  0.000000000E+00  0.00000E+00  9.000E+00
      21    -1     0     0   511   501  0.000000000E+00  0.000000000E+00 -1.358904532E+01  1.358904532E+01  0.000000000E+00  0.00000E+00  9.000E+00
      24     2     1     2     0     0  2.945419169E+01 -7.807799480E+00  5.699577383E+02  5.764531470E+02  8.073348833E+01  0.00000E+00  9.000E+00
     -11     1     3     3     0     0 -1.254219428E+01  2.633242839E+01  2.775879896E+02  2.791160967E+02  5.110270743E-04  0.00000E+00  9.000E+00
      12     1     3     3     0     0  4.199638597E+01 -3.414022787E+01  2.923697487E+02  2.973370504E+02  9.344061824E-06  0.00000E+00  9.000E+00
       1     1     1     2   511     0 -2.945419169E+01  7.807799480E+00  1.210524370E+01  3.278792561E+01  1.685873940E-07  0.00000E+00  9.000E+00
</event>
<event>
      6    666  1.00000E+00  8.04615E+00 -1.00000E+00  2.07279E-01
       2    -1     0     0   501     0  0.000000000E+00  0.000000000E+00  4.390687923E+02  4.390687923E+02  0.000000000E+00  0.00000E+00  9.000E+00
      -1    -1     0     0     0   511  0.000000000E+00  0.000000000E+00 -5.434610926E+00  5.434610926E+00  0.000000000E+00  0.00000E+00  9.000E+00
      24     2     1     2     0     0  2.681998258E-01  8.041682378E+00  4.254249005E+02  4.330084966E+02  8.028244848E+01  0.00000E+00  9.000E+00
     -11     1     3     3     0     0  1.061857523E+01 -1.618652743E+01  2.452936195E+01  3.124815848E+01  5.109964841E-04  0.00000E+00  9.000E+00
      12     1     3     3     0     0 -1.035037540E+01  2.422820981E+01  4.008955386E+02  4.017603381E+02  9.344061824E-06  0.00000E+00  9.000E+00
      21     1     1     2   501   511 -2.681998258E-01 -8.041682378E+00  8.209280817E+00  1.149490662E+01  2.920019320E-07  0.00000E+00  9.000E+00
</event>
<event>
      6    666  1.00000E+00  1.95574E+01 -1.00000E+00  1.67133E-01
       1    -1     0     0   501     0  0.000000000E+00  0.000000000E+00  9.859931005E+01  9.859931005E+01  0.000000000E+00  0.00000E+00  9.000E+00
      21    -1     0     0   511   501  0.000000000E+00  0.000000000E+00 -2.872635228E+01  2.872635228E+01  0.000000000E+00  0.00000E+00  9.000E+00
     -24     2     1     2     0     0 -1.952417326E+01 -1.138992134E+00  6.466895949E+01  1.070877711E+02  8.308565308E+01  0.00000E+00  9.000E+00
      11     1     3     3     0     0 -2.388021487E+01 -9.357064572E+00  8.281561347E+01  8.669628109E+01  5.109950380E-04  0.00000E+00  9.000E+00
     -12     1     3     3     0     0  4.356041615E+00  8.218072438E+00 -1.814665398E+01  2.039148999E+01  8.596304120E-07  0.00000E+00  9.000E+00
       2     1     1     2   511     0  1.952417326E+01  1.138992134E+00  5.203998276E+00  2.023789126E+01  2.598106231E-07  0.00000E+00  9.000E+00
</event>
<event>
      6    666  1.00000E+00  1.59750E+01 -1.00000E+00  1.74799E-01
      -2    -1     0     0     0   501  0.000000000E+00  0.000000000E+00  8.822219161E+01  8.822219161E+01  0.000000000E+00  0.00000E+00  9.000E+00
      21    -1     0     0   501   511  0.000000000E+00  0.000000000E+00 -3.723571619E+01  3.723571619E+01  0.000000000E+00  0.00000E+00  9.000E+00
     -24     2     1     2     0     0  1.587299469E+01  1.802347313E+00  6.823529514E+01  1.019478632E+02  7.404127827E+01  0.00000E+00  9.000E+00
      11     1     3     3     0     0 -6.836752307E+00  5.365593633E-01 -1.455519803E+01  1.608983742E+01  5.109992373E-04  0.00000E+00  9.000E+00
     -12     1     3     3     0     0  2.270974700E+01  1.265787950E+00  8.279049318E+01  8.585802576E+01  1.348699152E-06  0.00000E+00  9.000E+00
      -1     1     1     2     0   511 -1.587299469E+01 -1.802347313E+00 -1.724881972E+01  2.351004462E+01  5.331201500E-07  0.00000E+00  9.000E+00
</event>
<event>
      6    666  1.00000E+00  2.03652E+00 -1.00000E+00  3.59233E-01
       2    -1     0     0   501     0  0.000000000E+00  0.000000000E+00  1.671916335E+02  1.671916335E+02  0.000000000E+00  0.00000E+00  9.000E+00
      -3    -1     0     0     0   511  0.000000000E+00  0.000000000E+00 -9.820686949E+00  9.820686949E+00  0.000000000E+00  0.00000E+00  9.000E+00
      24     2     1     2     0     0  1.625775104E+00 -1.226492201E+00  1.584981608E+02  1.746846521E+02  7.340921799E+01  0.00000E+00  9.000E+00
     -11     1     3     3     0     0 -3.079165460E+01  1.607697457E+01  9.714878220E+01  1.031720940E+02  5.110021574E-04  0.00000E+00  9.000E+00
      12     1     3     3     0     0  3.241742970E+01 -1.730346677E+01  6.134937861E+01  7.151255811E+01  6.743495762E-07  0.00000E+00  9.000E+00
      21     1     1     2   501   511 -1.625775104E+00  1.226492201E+00 -1.127214253E+00  2.327668314E+00  2.580956828E-08  0.00000E+00  9.000E+00
</event>
<event>
      6    666  1.00000E+00  2.74997E+00 -1.00000E+00  3.08676E-01
       1    -1     0     0   511     0  0.000000000E+00  0.000000000E+00  3.492686922E+01  3.492686922E+01  0.000000000E+00  0.00000E+00  9.000E+00
      -2    -1     0     0     0   501  0.000000000E+00  0.000000000E+00 -5.820875844E+01  5.820875844E+01  0.000000000E+00  0.00000E+00  9.000E+00
     -24     2     1     2     0     0  2.335710754E+00  1.451485626E+00 -2.530030642E+01  8.972441626E+01  8.603954331E+01  0.00000E+00  9.000E+00
      11     1     3     3     0     0  2.955391498E+01  1.003316174E+01  1.935763357E+01  3.672623317E+01  5.109982084E-04  0.00000E+00  9.000E+00
     -12     1     3     3     0     0 -2.721820423E+01 -8.581676114E+00 -4.465793999E+01  5.299818309E+01  0.000000000E+00  0.00000E+00  9.000E+00
      21     1     1     2   511   501 -2.335710754E+00 -1.451485626E+00  2.018417198E+00  3.411211403E+00  2.980232239E-08  0.00000E+00  9.000E+00
</event>
<event>
      6    666  1.00000E+00  7.15421E+00 -1.00000E+00  2.14154E-01
      -1    -1     0     0     0   511  0.000000000E+00  0.000000000E+00  5.604142090E+00  5.604142090E+00  0.000000000E+00  0.00000E+00  9.000E+00
       2    -1     0     0   501     0  0.000000000E+00  0.000000000E+00 -4.931724749E+02  4.931724749E+02  0.000000000E+00  0.00000E+00  9.000E+00
      24     2     1     2     0     0  1.998672101E+00  6.869356677E+00 -4.841728041E+02  4.908575030E+02  8.041518030E+01  0.00000E+00  9.000E+00
     -11     1     3     3     0     0  3.265590161E+01  9.961108869E-01 -9.551229687E+01  1.009455249E+02  5.110057170E-04  0.00000E+00  9.000E+00
      12     1     3     3     0     0 -3.065722950E+01  5.873245790E+00 -3.886605073E+02  3.899119781E+02  5.394796609E-06  0.00000E+00  9.000E+00
      21     1     1     2   501   511 -1.998672101E+00 -6.869356677E+00 -3.395528643E+00  7.919113971E+00  2.598106231E-07  0.00000E+00  9.000E+00
</event>
<event>
      6    666  1.00000E+00  1.25367E+01 -1.00000E+00  1.85000E-01
       2    -1     0     0   501     0  0.000000000E+00  0.000000000E+00  2.537169626E+01  2.537169626E+01  0.000000000E+00  0.00000E+00  9.000E+00
      -1    -1     0     0     0   511  0.000000000E+00  0.000000000E+00 -8.757801275E+01  8.757801275E+01  0.000000000E+00  0.00000E+00  9.000E+00
      24     2     1     2     0     0 -2.767387338E+00  1.222748292E+01 -4.556309200E+01  9.211304198E+01  7.906735976E+01  0.00000E+00  9.000E+00
     -11     1     3     3     0     0  3.921921657E+00  1.562932021E+01 -6.725562203E+01  6.915906170E+01  5.109985977E-04  0.00000E+00  9.000E+00
      12     1     3     3     0     0 -6.689308995E+00 -3.401837288E+00  2.169253003E+01  2.295398028E+01  6.307962682E-07  0.00000E+00  9.000E+00
      21     1     1     2   501   511  2.767387338E+00 -1.222748292E+01 -1.664322449E+01  2.083666702E+01  0.000000000E+00  0.00000E+00  9.000E+00
</event>
<event>
      6    666  1.00000E+00  4.84896E+00 -1.00000E+00  2.45120E-01
      -1    -1     0     0     0   511  0.000000000E+00  0.000000000E+00  3.581477415E+00  3.581477415E+00  0.000000000E+00  0.00000E+00  9.000E+00
       2    -1     0     0   501     0  0.000000000E+00  0.000000000E+00 -7.106179193E+02  7.106179193E+02  0.000000000E+00  0.00000E+00  9.000E+00
      24     2     1     2     0     0  4.837770323E+00  3.292308759E-01 -7.029522264E+02  7.078595835E+02  8.306530578E+01  0.00000E+00  9.000E+00
     -11     1     3     3     0     0  1.999636042E+01 -3.114022220E+01 -1.812628288E+02  1.850021107E+02  5.109701195E-04  0.00000E+00  9.000E+00
      12     1     3     3     0     0 -1.515859009E+01  3.146945307E+01 -5.216893976E+02  5.228574728E+02  7.629394531E-06  0.00000E+00  9.000E+00
      21     1     1     2   501   511 -4.837770323E+00 -3.292308759E-01 -4.084215479E+00  6.339813148E+00  1.032382731E-07  0.00000E+00  9.000E+00
</event>
<event>
      5    666  1.00000E+00  8.94427E-01 -1.00000E+00  7.50595E-01
      -1    -1     0     0     0   501  0.000000000E+00  0.000000000E+00  8.575329305E-01  8.575329305E-01  0.000000000E+00  0.00000E+00  9.000E+00
       2    -1     0     0   501     0  0.000000000E+00  0.000000000E+00 -2.038485828E+03  2.038485828E+03  0.000000000E+00  0.00000E+00  9.000E+00
      24     2     1     2     0     0  0.000000000E+00  0.000000000E+00 -2.037628295E+03  2.039343360E+03  8.361982362E+01  0.00000E+00  9.000E+00
     -11     1     3     3     0     0  1.998948359E+01  4.935869915E+00 -1.313601741E+02  1.329640463E+02  5.110128362E-04  0.00000E+00  9.000E+00
      12     1     3     3     0     0 -1.998948359E+01 -4.935869915E+00 -1.906268121E+03  1.906379314E+03  3.737624730E-05  0.00000E+00  9.000E+00
</event>
<event>
      6    666  1.00000E+00  2.10288E+01 -1.00000E+00  1.64551E-01
      21    -1     0     0   511   501  0.000000000E+00  0.000000000E+00  6.237743880E+00  6.237743880E+00  0.000000000E+00  0.00000E+00  9.000E+00
       4    -1     0     0   501     0  0.000000000E+00  0.000000000E+00 -6.880891586E+02  6.880891586E+02  0.000000000E+00  0.00000E+00  9.000E+00
      24     2     1     2     0     0  2.095049345E+01  1.812823775E+00 -6.468475432E+02  6.534921069E+02  9.054269802E+01  0.00000E+00  9.000E+00
     -11     1     3     3     0     0  2.804013058E+01 -4.033498458E+01 -2.956299729E+02  2.996835678E+02  5.109558798E-04  0.00000E+00  9.000E+00
      12     1     3     3     0     0 -7.089637131E+00  4.214780835E+01 -3.512175703E+02  3.538085392E+02  7.629394531E-06  0.00000E+00  9.000E+00
       3     1     1     2   511     0 -2.095049345E+01 -1.812823775E+00 -3.500387147E+01  4.083479550E+01  6.743495762E-07  0.00000E+00  9.000E+00
</event>
<event>
      6    666  1.00000E+00  1.09162E+01 -1.00000E+00  1.91401E-01
      -1    -1     0     0     0   511  0.000000000E+00  0.000000000E+00  3.345946431E+00  3.345946431E+00  0.000000000E+00  0.00000E+00  9.000E+00
       2    -1     0     0   501     0  0.000000000E+00  0.000000000E+00 -7.583388746E+02  7.583388746E+02  0.000000000E+00  0.00000E+00  9.000E+00
      24     2     1     2     0     0 -2.896752015E+00  1.052485156E+01 -7.323196230E+02  7.365205122E+02  7.778991557E+01  0.00000E+00  9.000E+00
     -11     1     3     3     0     0  9.176749838E+00 -9.238855885E+00 -2.025747028E+01  2.408182506E+01  5.109999326E-04  0.00000E+00  9.000E+00
      12     1     3     3     0     0 -1.207350185E+01  1.976370744E+01 -7.120621527E+02  7.124386871E+02  1.321449896E-05  0.00000E+00  9.000E+00
      21     1     1     2   501   511  2.896752015E+00 -1.052485156E+01 -2.267330518E+01  2.516430886E+01  8.259061849E-07  0.00000E+00  9.000E+00
</event>
<event>
      6    666  1.00000E+00  1.41354E+01 -1.00000E+00  1.79799E-01
      -3    -1     0     0     0   511  0.000000000E+00  0.000000000E+00  9.860365780E+00  9.860365780E+00  0.000000000E+00  0.00000E+00  9.000E+00
       4    -1     0     0   501     0  0.000000000E+00  0.000000000E+00 -2.464653390E+02  2.464653390E+02  0.000000000E+00  0.00000E+00  9.000E+00
      24     2     1     2     0     0 -1.063492963E+01 -9.311629107E+00 -2.071983001E+02  2.236981001E+02  8.312578570E+01  0.00000E+00  9.000E+00
     -11     1     3     3     0     0  1.273699017E+01 -3.336686762E+01 -4.201326815E+01  5.514248339E+01  5.109983752E-04  0.00000E+00  9.000E+00
      12     1     3     3     0     0 -2.337191980E+01  2.405523852E+01 -1.651850320E+02  1.685556167E+02  1.907348633E-06  0.00000E+00  9.000E+00
      21     1     1     2   501   511  1.063492963E+01  9.311629107E+00 -2.940667313E+01  3.262760471E+01  6.743495762E-07  0.00000E+00  9.000E+00
</event>
<event>
      6    666  1.00000E+00  4.03312E+00 -1.00000E+00  2.62522E-01
       2    -1     0     0   511     0  0.000000000E+00  0.000000000E+00  5.220942732E+00  5.220942732E+00  0.000000000E+00  0.00000E+00  9.000E+00
      -1    -1     0     0     0   501  0.000000000E+00  0.000000000E+00 -6.257258928E+02  6.257258928E+02  0.000000000E+00  0.00000E+00  9.000E+00
      24     2     1     2     0     0  3.339693071E+00  2.261082995E+00 -6.216189255E+02  6.267627003E+02  8.003204338E+01  0.00000E+00  9.000E+00
     -11     1     3     3     0     0  2.004602576E+01 -2.231676182E+01 -5.205895670E+02  5.214531411E+02  5.107707276E-04  0.00000E+00  9.000E+00
      12     1     3     3     0     0 -1.670633269E+01  2.457784482E+01 -1.010293584E+02  1.053095593E+02  2.336015456E-06  0.00000E+00  9.000E+00
      21     1     1     2   511   501 -3.339693071E+00 -2.261082995E+00  1.113975414E+00  4.184135197E+00  4.050814277E-07  0.00000E+00  9.000E+00
</event>
<event>
      6    666  1.00000E+00  1.80720E+01 -1.00000E+00  1.70042E-01
       2    -1     0     0   501     0  0.000000000E+00  0.000000000E+00  7.563980840E+00  7.563980840E+00  0.000000000E+00  0.00000E+00  9.000E+00
      21    -1     0     0   511   501  0.000000000E+00  0.000000000E+00 -6.074099951E+02  6.074099951E+02  0.000000000E+00  0.00000E+00  9.000E+00
      24     2     1     2     0     0 -1.269918930E+01 -1.285797320E+01 -1.904003865E+02  2.051297141E+02  7.415723524E+01  0.00000E+00  9.000E+00
     -11     1     3     3     0     0  5.176445244E+00 -7.373956806E+00 -1.856091414E+02  1.858276734E+02  5.110128362E-04  0.00000E+00  9.000E+00
      12     1     3     3     0     0 -1.787563454E+01 -5.484016394E+00 -4.791245116E+00  1.930204072E+01  1.332800375E-07  0.00000E+00  9.000E+00
       1     1     1     2   511     0  1.269918930E+01  1.285797320E+01 -4.094456277E+02  4.098442618E+02  9.344061824E-06  0.00000E+00  9.000E+00
</event>
<event>
      6    666  1.00000E+00  1.72324E+02 -1.00000E+00  1.14035E-01
       1    -1     0     0   501     0  0.000000000E+00  0.000000000E+00  6.411972526E+02  6.411972526E+02  0.000000000E+00  0.00000E+00  9.000E+00
      21    -1     0     0   511   501  0.000000000E+00  0.000000000E+00 -5.399264421E+01  5.399264421E+01  0.000000000E+00  0.00000E+00  9.000E+00
     -24     2     1     2     0     0 -1.466508958E+02 -9.049363445E+01  3.861601346E+02  4.303985383E+02  8.017274518E+01  0.00000E+00  9.000E+00
      11     1     3     3     0     0 -1.501516464E+02 -7.921262990E+01  3.110176084E+02  3.543333323E+02  5.110697863E-04  0.00000E+00  9.000E+00
     -12     1     3     3     0     0  3.500750522E+00 -1.128100455E+01  7.514252617E+01  7.606520595E+01  0.000000000E+00  0.00000E+00  9.000E+00
       2     1     1     2   511     0  1.466508958E+02  9.049363445E+01  2.010444738E+02  2.647913586E+02  3.814697266E-06  0.00000E+00  9.000E+00
</event>
<event>
      6    666  1.00000E+00  6.60055E+00 -1.00000E+00  2.19151E-01
      -2    -1     0     0     0   501  0.000000000E+00  0.000000000E+00  3.998944747E+02  3.998944747E+02  0.000000000E+00  0.00000E+00  9.000E+00
       1    -1     0     0   511     0  0.000000000E+00  0.000000000E+00 -5.080051294E+00  5.080051294E+00  0.000000000E+00  0.00000E+00  9.000E+00
     -24     2     1     2     0     0 -3.970096359E+00  5.273095696E+00  3.828666774E+02  3.913247700E+02  8.065119822E+01  0.00000E+00  9.000E+00
      11     1     3     3     0     0  2.101959511E+01 -9.667567313E+00  3.330430848E+01  4.055196913E+01  5.110003775E-04  0.00000E+00  9.000E+00
     -12     1     3     3     0     0 -2.498969147E+01  1.494066301E+01  3.495623689E+02  3.507728009E+02  3.814697266E-06  0.00000E+00  9.000E+00
      21     1     1     2   511   501  3.970096359E+00 -5.273095696E+00  1.194774606E+01  1.364975601E+01  2.920019320E-07  0.00000E+00  9.000E+00
</event>
<event>
      6    666  1.00000E+00  1.73438E+00 -1.00000E+00  3.94398E-01
       1    -1     0     0   511     0  0.000000000E+00  0.000000000E+00  5.840853466E+02  5.840853466E+02  0.000000000E+00  0.00000E+00  9.000E+00
      -2    -1     0     0     0   501  0.000000000E+00  0.000000000E+00 -2.976440497E+00  2.976440497E+00  0.000000000E+00  0.00000E+00  9.000E+00
     -24     2     1     2     0     0 -1.519118288E+00  8.368626922E-01  4.685775740E+02  4.745170904E+02  7.482324589E+01  0.00000E+00  9.000E+00
      11     1     3     3     0     0  1.673437030E+00 -3.651198563E+01  2.661600511E+02  2.686579578E+02  5.110128362E-04  0.00000E+00  9.000E+00
     -12     1     3     3     0     0 -3.192555318E+00  3.734884833E+01  2.024175229E+02  2.058591326E+02  4.672030912E-06  0.00000E+00  9.000E+00
      21     1     1     2   511   501  1.519118288E+00 -8.368626922E-01  1.125313321E+02  1.125446967E+02  0.000000000E+00  0.00000E+00  9.000E+00
</event>
<event>
      6    666  1.00000E+00  3.68646E+00 -1.00000E+00  2.71997E-01
      -1    -1     0     0     0   501  0.000000000E+00  0.000000000E+00  1.328781200E+00  1.328781200E+00  0.000000000E+00  0.00000E+00  9.000E+00
       2    -1     0     0   511     0  0.000000000E+00  0.000000000E+00 -1.591404858E+03  1.591404858E+03  0.000000000E+00  0.00000E+00  9.000E+00
      24     2     1     2     0     0 -2.240962204E+00 -2.927123382E+00 -1.244107862E+03  1.246745784E+03  8.097585357E+01  0.00000E+00  9.000E+00
     -11     1     3     3     0     0 -6.019792469E+00  1.661357265E+01 -6.196300935E+01  6.443340147E+01  5.110119463E-04  0.00000E+00  9.000E+00
      12     1     3     3     0     0  3.778830266E+00 -1.954069603E+01 -1.182144853E+03  1.182312383E+03  2.157918644E-05  0.00000E+00  9.000E+00
      21     1     1     2   511   501  2.240962204E+00  2.927123382E+00 -3.459682145E+02  3.459878544E+02  0.000000000E+00  0.00000E+00  9.000E+00
</event>
<event>
      6    666  1.00000E+00  1.46300E+00 -1.00000E+00  4.53010E-01
      21    -1     0     0   511   501  0.000000000E+00  0.000000000E+00  1.426483845E+00  1.426483845E+00  0.000000000E+00  0.00000E+00  9.000E+00
       1    -1     0     0   501     0  0.000000000E+00  0.000000000E+00 -1.333384050E+03  1.333384050E+03  0.000000000E+00  0.00000E+00  9.000E+00
     -24     2     1     2     0     0 -8.396933930E-02  1.460584113E+00 -1.329614191E+03  1.332047970E+03  8.047207384E+01  0.00000E+00  9.000E+00
      11     1     3     3     0     0 -3.944229245E+01 -2.384127260E+00 -7.893446792E+02  7.903330950E+02  5.112263662E-04  0.00000E+00  9.000E+00
     -12     1     3     3     0     0  3.935832311E+01  3.844711373E+00 -5.402695123E+02  5.417148745E+02  0.000000000E+00  0.00000E+00  9.000E+00
       2     1     1     2   511     0  8.396933930E-02 -1.460584113E+00 -2.343374964E+00  2.762564573E+00  1.931411236E-07  0.00000E+00  9.000E+00
</event>
<event>
      6    666  1.00000E+00  3.45623E+00 -1.00000E+00  2.79255E-01
      21    -1     0     0   501   511  0.000000000E+00  0.000000000E+00  2.172153853E+02  2.172153853E+02  0.000000000E+00  0.00000E+00  9.000E+00
      -1    -1     0     0     0   501  0.000000000E+00  0.000000000E+00 -9.417177192E+01  9.417177192E+01  0.000000000E+00  0.00000E+00  9.000E+00
      24     2     1     2     0     0  3.311297352E+00 -9.903653641E-01 -7.627757619E+01  1.120360044E+02  8.198690226E+01  0.00000E+00  9.000E+00
     -11     1     3     3     0     0 -5.970550718E+00 -8.179581988E+00 -9.192092214E+01  9.247707265E+01  5.109985977E-04  0.00000E+00  9.000E+00
      12     1     3     3     0     0  9.281848071E+00  7.189216624E+00  1.564334595E+01  1.955893177E+01  1.215700987E-06  0.00000E+00  9.000E+00
      -2     1     1     2     0   511 -3.311297352E+00  9.903653641E-01  1.993211896E+02  1.993511528E+02  2.697398305E-06  0.00000E+00  9.000E+00
</event>
<event>
      6    666  1.00000E+00  2.06378E+01 -1.00000E+00  1.65211E-01
       1    -1     0     0   501     0  0.000000000E+00  0.000000000E+00  2.469850073E+01  2.469850073E+01  0.000000000E+00  0.00000E+00  9.000E+00
      -2    -1     0     0     0   511  0.000000000E+00  0.000000000E+00 -1.101603663E+02  1.101603663E+02  0.000000000E+00  0.00000E+00  9.000E+00
     -24     2     1     2     0     0  1.457413688E+01  1.461206026E+01 -6.803903235E+01  1.078501112E+02  8.109512194E+01  0.00000E+00  9.000E+00
      11     1     3     3     0     0 -5.055530577E+00 -1.941780938E+01  8.520625256E+00  2.179932947E+01  5.109983474E-04  0.00000E+00  9.000E+00
     -12     1     3     3     0     0  1.962966746E+01  3.402986963E+01 -7.655965760E+01  8.605078178E+01  0.000000000E+00  0.00000E+00  9.000E+00
      21     1     1     2   501   511 -1.457413688E+01 -1.461206026E+01 -1.742283319E+01  2.700875575E+01  3.371747881E-07  0.00000E+00  9.000E+00
</event>
<event>
      6    666  1.00000E+00  1.95705E+02 -1.00000E+00  1.11974E-01
       2    -1     0     0   501     0  0.000000000E+00  0.000000000E+00  5.820084863E+02  5.820084863E+02  0.000000000E+00  0.00000E+00  9.000E+00
      21    -1     0     0   511   501  0.000000000E+00  0.000000000E+00 -9.525827699E+01  9.525827699E+01  0.000000000E+00  0.00000E+00  9.000E+00
      24     2     1     2     0     0 -1.703180127E+02  9.639650175E+01  8.229195067E+01  2.279483973E+02  8.299394970E+01  0.00000E+00  9.000E+00
     -11     1     3     3     0     0 -1.159782332E+02  7.152199615E+01  9.594187753E+01  1.666469033E+02  5.109985977E-04  0.00000E+00  9.000E+00
      12     1     3     3     0     0 -5.433977953E+01  2.487450559E+01 -1.364992686E+01  6.130149404E+01  1.283923342E-06  0.00000E+00  9.000E+00
       1     1     1     2   511     0  1.703180127E+02 -9.639650175E+01  4.044582587E+02  4.493183660E+02  5.394796609E-06  0.00000E+00  9.000E+00
</event>
<event>
      6    666  1.00000E+00  1.04094E+01 -1.00000E+00  1.93707E-01
       1    -1     0     0   511     0  0.000000000E+00  0.000000000E+00  2.034692116E+01  2.034692116E+01  0.000000000E+00  0.00000E+00  9.000E+00
      -2    -1     0     0     0   501  0.000000000E+00  0.000000000E+00 -1.489362263E+02  1.489362263E+02  0.000000000E+00  0.00000E+00  9.000E+00
     -24     2     1     2     0     0  2.013762366E+00  1.021271718E+01 -1.343150140E+02  1.574029718E+02  8.140526839E+01  0.00000E+00  9.000E+00
      11     1     3     3     0     0  1.865439846E+00 -6.616894037E+00  9.986067033E+00  1.212372416E+01  5.109993208E-04  0.00000E+00  9.000E+00
     -12     1     3     3     0     0  1.483225198E-01  1.682961122E+01 -1.443010810E+02  1.452792476E+02  1.907348633E-06  0.00000E+00  9.000E+00
      21     1     1     2   511   501 -2.013762366E+00 -1.021271718E+01  5.725708866E+00  1.188017563E+01  2.064765462E-07  0.00000E+00  9.000E+00
</event>
<event>
      6    666  1.00000E+00  6.65297E+00 -1.00000E+00  2.18649E-01
      -2    -1     0     0     0   501  0.000000000E+00  0.000000000E+00  2.852510490E+02  2.852510490E+02  0.000000000E+00  0.00000E+00  9.000E+00
      21    -1     0     0   501   511  0.000000000E+00  0.000000000E+00 -1.673187156E+01  1.673187156E+01  0.000000000E+00  0.00000E+00  9.000E+00
     -24     2     1     2     0     0 -6.651572258E+00  1.362767970E-01  2.784602198E+02  2.900210516E+02  8.079513824E+01  0.00000E+00  9.000E+00
      11     1     3     3     0     0 -4.189567832E+00 -2.570301635E+01  2.807348854E+01  3.829253566E+01  5.110010450E-04  0.00000E+00  9.000E+00
     -12     1     3     3     0     0 -2.462004425E+00  2.583929315E+01  2.503867313E+02  2.517285159E+02  2.697398305E-06  0.00000E+00  9.000E+00
      -1     1     1     2     0   511  6.651572258E+00 -1.362767970E-01 -9.941042389E+00  1.196186894E+01  3.953724850E-07  0.00000E+00  9.000E+00
</event>
<event>
      6    666  1.00000E+00  6.36780E+00 -1.00000E+00  2.21457E-01
       4    -1     0     0   501     0  0.000000000E+00  0.000000000E+00  8.260804096E+01  8.260804096E+01  0.000000000E+00  0.00000E+00  9.000E+00
      -3    -1     0     0     0   511  0.000000000E+00  0.000000000E+00 -3.635873945E+01  3.635873945E+01  0.000000000E+00  0.00000E+00  9.000E+00
      24     2     1     2     0     0 -6.131935387E+00 -1.717027875E+00  6.146168479E+01  1.024754063E+02  8.175036009E+01  0.00000E+00  9.000E+00
     -11     1     3     3     0     0  6.642455067E+00  1.484312452E+01 -1.565523089E+01  2.257270053E+01  5.109988202E-04  0.00000E+00  9.000E+00
      12     1     3     3     0     0 -1.277439045E+01 -1.656015239E+01  7.711691568E+01  7.990270573E+01  1.348699152E-06  0.00000E+00  9.000E+00
      21     1     1     2   501   511  6.131935387E+00  1.717027875E+00 -1.521238328E+01  1.649137415E+01  1.685873940E-07  0.00000E+00  9.000E+00
</event>
<event>
      6    666  1.00000E+00  1.78721E+01 -1.00000E+00  1.70460E-01
       3    -1     0     0   511     0  0.000000000E+00  0.000000000E+00  1.471523236E+01  1.471523236E+01  0.000000000E+00  0.00000E+00  9.000E+00
      -4    -1     0     0     0   501  0.000000000E+00  0.000000000E+00 -2.367560153E+02  2.367560153E+02  0.000000000E+00  0.00000E+00  9.000E+00
     -24     2     1     2     0     0  1.712975074E+01 -5.097356488E+00 -2.177340267E+02  2.330875714E+02  8.125452697E+01  0.00000E+00  9.000E+00
      11     1     3     3     0     0 -1.977267035E+01 -1.935052128E+01 -2.833545572E+01  3.960175776E+01  5.109980415E-04  0.00000E+00  9.000E+00
     -12     1     3     3     0     0  3.690242109E+01  1.425316480E+01 -1.893985710E+02  1.934858136E+02  0.000000000E+00  0.00000E+00  9.000E+00
      21     1     1     2   511   501 -1.712975074E+01  5.097356488E+00 -4.306756249E+00  1.838367626E+01  1.192092896E-07  0.00000E+00  9.000E+00
</event>
<event>
      6    666  1.00000E+00  1.61631E+00 -1.00000E+00  4.12306E-01
      -1    -1     0     0     0   511  0.000000000E+00  0.000000000E+00  5.321177605E+01  5.321177605E+01  0.000000000E+00  0.00000E+00  9.000E+00
       2    -1     0     0   501     0  0.000000000E+00  0.000000000E+00 -1.091618738E+02  1.091618738E+02  0.000000000E+00  0.00000E+00  9.000E+00
      24     2     1     2     0     0 -1.117363410E+00 -1.167890288E+00 -9.481987291E+01  1.234702837E+02  7.906636580E+01  0.00000E+00  9.000E+00
     -11     1     3     3     0     0 -1.492361722E-02 -2.380774517E+00  1.422008189E+01  1.441801093E+01  5.109989314E-04  0.00000E+00  9.000E+00
      12     1     3     3     0     0 -1.102439792E+00  1.212884229E+00 -1.090399548E+02  1.090522728E+02  2.697398305E-06  0.00000E+00  9.000E+00
      21     1     1     2   501   511  1.117363410E+00  1.167890288E+00  3.886977519E+01  3.890336608E+01  4.768371582E-07  0.00000E+00  9.000E+00
</event>
<event>
      6    666  1.00000E+00  5.04468E+00 -1.00000E+00  2.37756E-01
       2    -1     0     0   501     0  0.000000000E+00  0.000000000E+00  1.619480455E+02  1.619480455E+02  0.000000000E+00  0.00000E+00  9.000E+00
      -1    -1     0     0     0   511  0.000000000E+00  0.000000000E+00 -1.282620111E+01  1.282620111E+01  0.000000000E+00  0.00000E+00  9.000E+00
      24     2     1     2     0     0 -1.884613250E+00 -4.679423303E+00  1.498214702E+02  1.696812862E+02  7.949727786E+01  0.00000E+00  9.000E+00
     -11     1     3     3     0     0 -3.611667178E+01  2.076069897E+00  3.767225124E+01  5.222951810E+01  5.110012675E-04  0.00000E+00  9.000E+00
      12     1     3     3     0     0  3.423205853E+01 -6.755493200E+00  1.121492190E+02  1.174517681E+02  1.348699152E-06  0.00000E+00  9.000E+00
      21     1     1     2   501   511  1.884613250E+00  4.679423303E+00 -6.996257892E-01  5.092960415E+00  6.746787681E-08  0.00000E+00  9.000E+00
</event>
<event>
      6    666  1.00000E+00  6.70643E+00 -1.00000E+00  2.18144E-01
       2    -1     0     0   511     0  0.000000000E+00  0.000000000E+00  4.683169099E+02  4.683169099E+02  0.000000000E+00  0.00000E+00  9.000E+00
      -1    -1     0     0     0   501  0.000000000E+00  0.000000000E+00 -5.089193861E+00  5.089193861E+00  0.000000000E+00  0.00000E+00  9.000E+00
      24     2     1     2     0     0 -6.369736081E+00 -2.098263801E+00  3.144373599E+02  3.244646847E+02  7.975902477E+01  0.00000E+00  9.000E+00
     -11     1     3     3     0     0 -3.339736940E+01 -1.233025260E+01  2.635501559E+02  2.659437987E+02  5.109843588E-04  0.00000E+00  9.000E+00
      12     1     3     3     0     0  2.702763332E+01  1.023198880E+01  5.088720408E+01  5.852088598E+01  1.348699152E-06  0.00000E+00  9.000E+00
      21     1     1     2   511   501  6.369736081E+00  2.098263801E+00  1.487903561E+02  1.489414191E+02  1.907348633E-06  0.00000E+00  9.000E+00
</event>
<event>
      6    666  1.00000E+00  8.66940E+00 -1.00000E+00  2.03147E-01
      -1    -1     0     0     0   501  0.000000000E+00  0.000000000E+00  1.580839272E+02  1.580839272E+02  0.000000000E+00  0.00000E+00  9.000E+00
      21    -1     0     0   501   511  0.000000000E+00  0.000000000E+00 -1.417112642E+01  1.417112642E+01  0.000000000E+00  0.00000E+00  9.000E+00
      24     2     1     2     0     0 -8.460354064E+00  1.892335177E+00  1.423212363E+02  1.634407697E+02  7.988987653E+01  0.00000E+00  9.000E+00
     -11     1     3     3     0     0  3.592500009E+01  9.310186836E-01  6.160297941E+01  7.131899817E+01  5.109968179E-04  0.00000E+00  9.000E+00
      12     1     3     3     0     0 -4.438535416E+01  9.613164936E-01  8.071825694E+01  9.212177157E+01  1.907348633E-06  0.00000E+00  9.000E+00
      -2     1     1     2     0   511  8.460354064E+00 -1.892335177E+00  1.591564443E+00  8.814283901E+00  1.788139343E-07  0.00000E+00  9.000E+00
</event>
<event>
      6    666  1.00000E+00  6.94147E+01 -1.00000E+00  1.31380E-01
       2    -1     0     0   501     0  0.000000000E+00  0.000000000E+00  2.731696489E+02  2.731696489E+02  0.000000000E+00  0.00000E+00  9.000E+00
      21    -1     0     0   511   501  0.000000000E+00  0.000000000E+00 -3.302242146E+01  3.302242146E+01  0.000000000E+00  0.00000E+00  9.000E+00
      24     2     1     2     0     0 -4.834982563E+01 -4.980659282E+01  2.001610618E+02  2.260840447E+02  7.893758484E+01  0.00000E+00  9.000E+00
     -11     1     3     3     0     0 -4.774750692E+01 -2.121914574E+01  4.700580035E+01  7.028244325E+01  5.109959279E-04  0.00000E+00  9.000E+00
      12     1     3     3     0     0 -6.023187128E-01 -2.858744708E+01  1.531552614E+02  1.558016015E+02  1.907348633E-06  0.00000E+00  9.000E+00
       1     1     1     2   511     0  4.834982563E+01  4.980659282E+01  3.998616567E+01  8.010802563E+01  6.743495762E-07  0.00000E+00  9.000E+00
</event>
<event>
      6    666  1.00000E+00  2.56775E+01 -1.00000E+00  1.57849E-01
      -1    -1     0     0     0   501  0.000000000E+00  0.000000000E+00  2.705783564E+01  2.705783564E+01  0.000000000E+00  0.00000E+00  9.000E+00
       2    -1     0     0   511     0  0.000000000E+00  0.000000000E+00 -1.311215133E+02  1.311215133E+02  0.000000000E+00  0.00000E+00  9.000E+00
      24     2     1     2     0     0  2.319664824E+01 -1.101143685E+01 -5.430748802E+01  1.021881475E+02  8.266666803E+01  0.00000E+00  9.000E+00
     -11     1     3     3     0     0 -1.759488377E+01  1.360382732E+01  8.103325711E+00  2.367082467E+01  5.109986394E-04  0.00000E+00  9.000E+00
      12     1     3     3     0     0  4.079153201E+01 -2.461526417E+01 -6.241081373E+01  7.851732283E+01  1.507891493E-06  0.00000E+00  9.000E+00
      21     1     1     2   511   501 -2.319664824E+01  1.101143685E+01 -4.975618964E+01  5.599120144E+01  1.168007728E-06  0.00000E+00  9.000E+00
</event>
<event>
      6    666  1.00000E+00  3.73130E+01 -1.00000E+00  1.46706E-01
       2    -1     0     0   501     0  0.000000000E+00  0.000000000E+00  5.782993008E+02  5.782993008E+02  0.000000000E+00  0.00000E+00  9.000E+00
      21    -1     0     0   511   501  0.000000000E+00  0.000000000E+00 -6.783900635E+00  6.783900635E+00  0.000000000E+00  0.00000E+00  9.000E+00
      24     2     1     2     0     0 -3.115348765E+01 -2.053577439E+01  3.476047997E+02  3.580849309E+02  7.748201821E+01  0.00000E+00  9.000E+00
     -11     1     3     3     0     0 -1.344387313E+01 -3.580312915E+01  7.232476040E+01  8.181364647E+01  5.109994876E-04  0.00000E+00  9.000E+00
      12     1     3     3     0     0 -1.770961452E+01  1.526735475E+01  2.752800393E+02  2.762712845E+02  0.000000000E+00  0.00000E+00  9.000E+00
       3     1     1     2   511     0  3.115348765E+01  2.053577439E+01  2.239106005E+02  2.269982705E+02  4.672030912E-06  0.00000E+00  9.000E+00
</event>
<event>
      6    666  1.00000E+00  1.14210E+01 -1.00000E+00  1.89260E-01
      -3    -1     0     0     0   501  0.000000000E+00  0.000000000E+00  4.466360650E+02  4.466360650E+02  0.000000000E+00  0.00000E+00  9.000E+00
      21    -1     0     0   501   511  0.000000000E+00  0.000000000E+00 -1.086940810E+01  1.086940810E+01  0.000000000E+00  0.00000E+00  9.000E+00
      24     2     1     2     0     0  1.006029016E+01 -5.406516915E+00  4.382281466E+02  4.458222033E+02  8.113623458E+01  0.00000E+00  9.000E+00
     -11     1     3     3     0     0 -2.998435381E+01  6.460520249E-01  3.076322629E+02  3.090907440E+02  5.109843588E-04  0.00000E+00  9.000E+00
      12     1     3     3     0     0  4.004464398E+01 -6.052568939E+00  1.305958837E+02  1.367314592E+02  1.907348633E-06  0.00000E+00  9.000E+00
      -4     1     1     2     0   511 -1.006029016E+01  5.406516915E+00 -2.461489696E+00  1.168326987E+01  5.438413498E-07  0.00000E+00  9.000E+00
</event>
<event>
      6    666  1.00000E+00  6.94354E+00 -1.00000E+00  2.15980E-01
       2    -1     0     0   501     0  0.000000000E+00  0.000000000E+00  2.871908143E+00  2.871908143E+00  0.000000000E+00  0.00000E+00  9.000E+00
      -1    -1     0     0     0   511  0.000000000E+00  0.000000000E+00 -6.755743770E+02  6.755743770E+02  0.000000000E+00  0.00000E+00  9.000E+00
      24     2     1     2     0     0 -3.059849829E+00 -6.232984540E+00 -6.068839736E+02  6.122625478E+02  8.067872823E+01  0.00000E+00  9.000E+00
     -11     1     3     3     0     0  3.298037573E+01  1.153858107E+01 -3.992441232E+02  4.007701511E+02  5.110270743E-04  0.00000E+00  9.000E+00
      12     1     3     3     0     0 -3.604022555E+01 -1.777156561E+01 -2.076398504E+02  2.114923967E+02  2.697398305E-06  0.00000E+00  9.000E+00
      21     1     1     2   501   511  3.059849829E+00  6.232984540E+00 -6.581849524E+01  6.618373738E+01  1.348699152E-06  0.00000E+00  9.000E+00
</event>
<event>
      6    666  1.00000E+00  9.50981E+00 -1.00000E+00  1.98255E-01
      -2    -1     0     0     0   511  0.000000000E+00  0.000000000E+00  7.495765320E+00  7.495765320E+00  0.000000000E+00  0.00000E+00  9.000E+00
       1    -1     0     0   501     0  0.000000000E+00  0.000000000E+00 -3.474240624E+02  3.474240624E+02  0.000000000E+00  0.00000E+00  9.000E+00
     -24     2     1     2     0     0 -7.047669353E+00 -6.384886085E+00 -3.351092832E+02  3.442587158E+02  7.826490455E+01  0.00000E+00  9.000E+00
      11     1     3     3     0     0  9.285405986E+00  2.612539767E+01 -2.521794504E+02  2.536990942E+02  5.109629997E-04  0.00000E+00  9.000E+00
     -12     1     3     3     0     0 -1.633307534E+01 -3.251028375E+01 -8.292983278E+01  9.055962160E+01  2.336015456E-06  0.00000E+00  9.000E+00
      21     1     1     2   501   511  7.047669353E+00  6.384886085E+00 -4.819013913E+00  1.066111198E+01  4.172325134E-07  0.00000E+00  9.000E+00
</event>
<event>
      6    666  1.00000E+00  4.15462E+00 -1.00000E+00  2.59544E-01
      21    -1     0     0   511   501  0.000000000E+00  0.000000000E+00  6.066704243E+00  6.066704243E+00  0.000000000E+00  0.00000E+00  9.000E+00
       2    -1     0     0   501     0  0.000000000E+00  0.000000000E+00 -9.848932375E+02  9.848932375E+02  0.000000000E+00  0.00000E+00  9.000E+00
      24     2     1     2     0     0  1.669629361E+00 -3.804369667E+00 -9.822727556E+02  9.855620403E+02  8.034617591E+01  0.00000E+00  9.000E+00
     -11     1     3     3     0     0 -7.774939428E+00  8.016842035E+00 -1.808301381E+01  2.125358389E+01  5.109992095E-04  0.00000E+00  9.000E+00
      12     1     3     3     0     0  9.444568788E+00 -1.182121170E+01 -9.641897418E+02  9.643084564E+02  0.000000000E+00  0.00000E+00  9.000E+00
       1     1     1     2   511     0 -1.669629361E+00  3.804369667E+00  3.446222391E+00  5.397901401E+00  2.827296549E-07  0.00000E+00  9.000E+00
</event>
<event>
      6    666  1.00000E+00  3.15103E+00 -1.00000E+00  2.90409E-01
      21    -1     0     0   511   501  0.000000000E+00  0.000000000E+00  1.943599950E+00  1.943599950E+00  0.000000000E+00  0.00000E+00  9.000E+00
       1    -1     0     0   501     0  0.000000000E+00  0.000000000E+00 -9.735523237E+02  9.735523237E+02  0.000000000E+00  0.00000E+00  9.000E+00
     -24     2     1     2     0     0 -2.541146520E+00  1.863214389E+00 -9.630546722E+02  9.663799601E+02  8.003747023E+01  0.00000E+00  9.000E+00
      11     1     3     3     0     0 -7.105943266E+00 -2.941316908E+01 -7.821271872E+02  7.827123136E+02  5.109985977E-04  0.00000E+00  9.000E+00
     -12     1     3     3     0     0  4.564796747E+00  3.127638347E+01 -1.809274850E+02  1.836676465E+02  2.697398305E-06  0.00000E+00  9.000E+00
       2     1     1     2   511     0  2.541146520E+00 -1.863214389E+00 -8.554051494E+00  9.115963495E+00  1.192092896E-07  0.00000E+00  9.000E+00
</event>
<event>
      6    666  1.00000E+00  1.14967E+01 -1.00000E+00  1.88952E-01
      21    -1     0     0   511   501  0.000000000E+00  0.000000000E+00  4.120051377E+02  4.120051377E+02  0.000000000E+00  0.00000E+00  9.000E+00
       3    -1     0     0   501     0  0.000000000E+00  0.000000000E+00 -6.950162326E+00  6.950162326E+00  0.000000000E+00  0.00000E+00  9.000E+00
     -24     2     1     2     0     0 -1.104269453E+01  3.198943230E+00  2.580688358E+02  2.715202310E+02  8.361541432E+01  0.00000E+00  9.000E+00
      11     1     3     3     0     0 -4.761383093E+01 -6.985332042E-01  1.470572437E+02  1.545748938E+02  5.110021574E-04  0.00000E+00  9.000E+00
     -12     1     3     3     0     0  3.657113640E+01  3.897476435E+00  1.110115921E+02  1.169453373E+02  3.568322551E-06  0.00000E+00  9.000E+00
       4     1     1     2   511     0  1.104269453E+01 -3.198943230E+00  1.469861396E+02  1.474350690E+02  2.697398305E-06  0.00000E+00  9.000E+00
</event>
<event>
      6    666  1.00000E+00  8.44916E+00 -1.00000E+00  2.04552E-01
      -2    -1     0     0     0   501  0.000000000E+00  0.000000000E+00  4.683808787E+02  4.683808787E+02  0.000000000E+00  0.00000E+00  9.000E+00
      21    -1     0     0   501   511  0.000000000E+00  0.000000000E+00 -4.463210484E+00  4.463210484E+00  0.000000000E+00  0.00000E+00  9.000E+00
     -24     2     1     2     0     0 -7.932001075E+00 -2.910613589E+00  4.425137048E+02  4.498328319E+02  8.037293944E+01  0.00000E+00  9.000E+00
      11     1     3     3     0     0 -4.234748463E+01  5.775669707E+00  2.966247461E+02  2.996880175E+02  5.110697863E-04  0.00000E+00  9.000E+00
     -12     1     3     3     0     0  3.441548356E+01 -8.686283296E+00  1.458889587E+02  1.501448144E+02  3.303624740E-06  0.00000E+00  9.000E+00
      -1     1     1     2     0   511  7.932001075E+00  2.910613589E+00  2.140396341E+01  2.301125729E+01  4.129530925E-07  0.00000E+00  9.000E+00
</event>
<event>
      6    666  1.00000E+00  7.49464E+00 -1.00000E+00  2.11378E-01
      21    -1     0     0   511   501  0.000000000E+00  0.000000000E+00  3.433082542E+01  3.433082542E+01  0.000000000E+00  0.00000E+00  9.000E+00
       2    -1     0     0   501     0  0.000000000E+00  0.000000000E+00 -1.149947865E+02  1.149947865E+02  0.000000000E+00  0.00000E+00  9.000E+00
      24     2     1     2     0     0 -5.986611422E+00  4.508887173E+00 -9.940706130E+01  1.291396418E+02  8.209210483E+01  0.00000E+00  9.000E+00
     -11     1     3     3     0     0 -1.947560432E+01  1.826108288E+01  1.180868478E+00  2.672378645E+01  5.109988321E-04  0.00000E+00  9.000E+00
      12     1     3     3     0     0  1.348899290E+01 -1.375219570E+01 -1.005879298E+02  1.024158554E+02  2.336015456E-06  0.00000E+00  9.000E+00
       1     1     1     2   511     0  5.986611422E+00 -4.508887173E+00  1.874310026E+01  2.018597006E+01  2.384185791E-07  0.00000E+00  9.000E+00
</event>
<event>
      6    666  1.00000E+00  2.84040E+01 -1.00000E+00  1.54671E-01
      21    -1     0     0   501   511  0.000000000E+00  0.000000000E+00  4.266210961E+01  4.266210961E+01  0.000000000E+00  0.00000E+00  9.000E+00
      -3    -1     0     0     0   501  0.000000000E+00  0.000000000E+00 -8.031622988E+01  8.031622988E+01  0.000000000E+00  0.00000E+00  9.000E+00
      24     2     1     2     0     0  9.077503146E+00  2.691443149E+01 -4.167921334E+01  9.429055358E+01  7.966658010E+01  0.00000E+00  9.000E+00
     -11     1     3     3     0     0  1.615298781E+01 -6.102922255E+00 -5.525989276E+01  5.789490844E+01  5.109972628E-04  0.00000E+00  9.000E+00
      12     1     3     3     0     0 -7.075484661E+00  3.301735375E+01  1.358067943E+01  3.639564514E+01  1.052827938E-06  0.00000E+00  9.000E+00
      -4     1     1     2     0   511 -9.077503146E+00 -2.691443149E+01  4.025093072E+00  2.868778591E+01  3.526258339E-07  0.00000E+00  9.000E+00
</event>
<event>
      6    666  1.00000E+00  4.94106E+00 -1.00000E+00  2.43478E-01
      -2    -1     0     0     0   501  0.000000000E+00  0.000000000E+00  1.459677288E+01  1.459677288E+01  0.000000000E+00  0.00000E+00  9.000E+00
       1    -1     0     0   511     0  0.000000000E+00  0.000000000E+00 -1.562123955E+02  1.562123955E+02  0.000000000E+00  0.00000E+00  9.000E+00
     -24     2     1     2     0     0  3.946776605E+00 -2.972712955E+00 -1.009792954E+02  1.298735462E+02  8.152242544E+01  0.00000E+00  9.000E+00
      11     1     3     3     0     0  2.073424186E+01 -3.062103426E+01 -8.719550792E+01  9.471332074E+01  5.109985977E-04  0.00000E+00  9.000E+00
     -12     1     3     3     0     0 -1.678746526E+01  2.764832130E+01 -1.378378747E+01  3.516022551E+01  7.348554138E-07  0.00000E+00  9.000E+00
      21     1     1     2   511   501 -3.946776605E+00  2.972712955E+00 -4.063632721E+01  4.093562210E+01  9.536743164E-07  0.00000E+00  9.000E+00
</event>
<event>
      6    666  1.00000E+00  5.59094E+00 -1.00000E+00  2.30260E-01
       2    -1     0     0   501     0  0.000000000E+00  0.000000000E+00  4.250454506E+01  4.250454506E+01  0.000000000E+00  0.00000E+00  9.000E+00
      -1    -1     0     0     0   511  0.000000000E+00  0.000000000E+00 -5.579458324E+01  5.579458324E+01  0.000000000E+00  0.00000E+00  9.000E+00
      24     2     1     2     0     0  5.120947673E+00  2.243763624E+00  1.830534434E+00  8.217801493E+01  8.196716843E+01  0.00000E+00  9.000E+00
     -11     1     3     3     0     0 -7.979284437E+00  1.636105380E+01 -3.565588311E+01  4.003367410E+01  5.110003775E-04  0.00000E+00  9.000E+00
      12     1     3     3     0     0  1.310023211E+01 -1.411729018E+01  3.748641754E+01  4.214434082E+01  6.743495762E-07  0.00000E+00  9.000E+00
      21     1     1     2   501   511 -5.120947673E+00 -2.243763624E+00 -1.512057261E+01  1.612111337E+01  1.685873940E-07  0.00000E+00  9.000E+00
</event>
<event>
      6    666  1.00000E+00  3.81342E+01 -1.00000E+00  1.46107E-01
      -2    -1     0     0     0   511  0.000000000E+00  0.000000000E+00  1.368363522E+01  1.368363522E+01  0.000000000E+00  0.00000E+00  9.000E+00
       1    -1     0     0   501     0  0.000000000E+00  0.000000000E+00 -5.036579346E+02  5.036579346E+02  0.000000000E+00  0.00000E+00  9.000E+00
     -24     2     1     2     0     0 -1.483277312E+01 -3.513124463E+01 -4.627114884E+02  4.704643219E+02  7.602987050E+01  0.00000E+00  9.000E+00
      11     1     3     3     0     0  2.114262914E+00  1.143267332E+01 -3.034391673E+02  3.036618257E+02  5.110128362E-04  0.00000E+00  9.000E+00
     -12     1     3     3     0     0 -1.694703604E+01 -4.656391796E+01 -1.592723211E+02  1.668024962E+02  3.814697266E-06  0.00000E+00  9.000E+00
      21     1     1     2   501   511  1.483277312E+01  3.513124463E+01 -2.726281099E+01  4.687724791E+01  1.907348633E-06  0.00000E+00  9.000E+00
</event>
<event>
      6    666  1.00000E+00  1.45430E+01 -1.00000E+00  1.78611E-01
       1    -1     0     0   501     0  0.000000000E+00  0.000000000E+00  2.151925131E+02  2.151925131E+02  0.000000000E+00  0.00000E+00  9.000E+00
      21    -1     0     0   511   501  0.000000000E+00  0.000000000E+00 -1.079384653E+01  1.079384653E+01  0.000000000E+00  0.00000E+00  9.000E+00
     -24     2     1     2     0     0 -3.051362845E+00  1.421928233E+01  1.633018790E+02  1.823922688E+02  7.992457216E+01  0.00000E+00  9.000E+00
      11     1     3     3     0     0  3.437938621E+01  3.156572656E-02  3.994136519E+01  5.269967595E+01  5.109970403E-04  0.00000E+00  9.000E+00
     -12     1     3     3     0     0 -3.743074905E+01  1.418771660E+01  1.233605138E+02  1.296925928E+02  1.348699152E-06  0.00000E+00  9.000E+00
       2     1     1     2   511     0  3.051362845E+00 -1.421928233E+01  4.109678764E+01  4.359409088E+01  4.768371582E-07  0.00000E+00  9.000E+00
</event>
<event>
      6    666  1.00000E+00  4.03259E+01 -1.00000E+00  1.44591E-01
      -3    -1     0     0     0   501  0.000000000E+00  0.000000000E+00  2.224520729E+01  2.224520729E+01  0.000000000E+00  0.00000E+00  9.000E+00
      21    -1     0     0   501   511  0.000000000E+00  0.000000000E+00 -1.944491072E+02  1.944491072E+02  0.000000000E+00  0.00000E+00  9.000E+00
      24     2     1     2     0     0 -3.864766022E+01  1.151255018E+01 -9.553587700E+01  1.300677239E+02  7.851323814E+01  0.00000E+00  9.000E+00
     -11     1     3     3     0     0 -4.231911114E+01  1.141580970E+01 -1.082745728E+02  1.168101494E+02  5.110057170E-04  0.00000E+00  9.000E+00
      12     1     3     3     0     0  3.671450915E+00  9.674048339E-02  1.273869585E+01  1.325757453E+01  1.379947293E-06  0.00000E+00  9.000E+00
      -4     1     1     2     0   511  3.864766022E+01 -1.151255018E+01 -7.666802289E+01  8.662659053E+01  1.348699152E-06  0.00000E+00  9.000E+00
</event>
<event>
      6    666  1.00000E+00  8.53435E+00 -1.00000E+00  2.04002E-01
       1    -1     0     0   501     0  0.000000000E+00  0.000000000E+00  1.708208987E+02  1.708208987E+02  0.000000000E+00  0.00000E+00  9.000E+00
      21    -1     0     0   511   501  0.000000000E+00  0.000000000E+00 -1.261736096E+02  1.261736096E+02  0.000000000E+00  0.00000E+00  9.000E+00
     -24     2     1     2     0     0 -1.752911005E+00 -8.352390014E+00  1.619139413E+02  1.794177127E+02  7.682288801E+01  0.00000E+00  9.000E+00
      11     1     3     3     0     0 -3.141455538E+01 -7.287682407E+00  1.367631890E+02  1.405138943E+02  5.109950380E-04  0.00000E+00  9.000E+00
     -12     1     3     3     0     0  2.966164438E+01 -1.064707607E+00  2.515075231E+01  3.890381846E+01  1.215700987E-06  0.00000E+00  9.000E+00
       2     1     1     2   511     0  1.752911005E+00  8.352390014E+00 -1.172666523E+02  1.175767956E+02  1.907348633E-06  0.00000E+00  9.000E+00
</event>
<event>
      6    666  1.00000E+00  3.11861E+01 -1.00000E+00  1.51845E-01
      21    -1     0     0   511   501  0.000000000E+00  0.000000000E+00  3.843586853E+01  3.843586853E+01  0.000000000E+00  0.00000E+00  9.000E+00
       2    -1     0     0   501     0  0.000000000E+00  0.000000000E+00 -8.688676034E+01  8.688676034E+01  0.000000000E+00  0.00000E+00  9.000E+00
      24     2     1     2     0     0 -1.183902911E+01 -2.885155200E+01 -2.568584537E+01  8.671146465E+01  7.672379544E+01  0.00000E+00  9.000E+00
     -11     1     3     3     0     0 -2.006537043E+01  2.156396977E+01  1.751938429E-01  2.945597692E+01  5.109984527E-04  0.00000E+00  9.000E+00
      12     1     3     3     0     0  8.226341319E+00 -5.041552177E+01 -2.586103921E+01  5.725548774E+01  1.469710828E-06  0.00000E+00  9.000E+00
       1     1     1     2   511     0  1.183902911E+01  2.885155200E+01 -2.276504644E+01  3.861116422E+01  8.259061849E-07  0.00000E+00  9.000E+00
</event>
<event>
      6    666  1.00000E+00  2.27921E+01 -1.00000E+00  1.61779E-01
      -2    -1     0     0     0   501  0.000000000E+00  0.000000000E+00  1.351388809E+01  1.351388809E+01  0.000000000E+00  0.00000E+00  9.000E+00
       1    -1     0     0   511     0  0.000000000E+00  0.000000000E+00 -2.462154347E+02  2.462154347E+02  0.000000000E+00  0.00000E+00  9.000E+00
     -24     2     1     2     0     0  1.219517097E+01  1.925504593E+01 -1.322970790E+02  1.567704178E+02  8.096275572E+01  0.00000E+00  9.000E+00
      11     1     3     3     0     0  4.304472571E+01  2.876632014E+01 -7.870546217E+01  9.420668427E+01  5.110021574E-04  0.00000E+00  9.000E+00
     -12     1     3     3     0     0 -3.084955475E+01 -9.511274216E+00 -5.359161680E+01  6.256373356E+01  2.023048729E-06  0.00000E+00  9.000E+00
      21     1     1     2   511   501 -1.219517097E+01 -1.925504593E+01 -1.004044676E+02  1.029589049E+02  1.348699152E-06  0.00000E+00  9.000E+00
</event>
<event>
      6    666  1.00000E+00  8.77662E+01 -1.00000E+00  1.26408E-01
      21    -1     0     0   511   501  0.000000000E+00  0.000000000E+00  2.089580146E+02  2.089580146E+02  0.000000000E+00  0.00000E+00  9.000E+00
       2    -1     0     0   501     0  0.000000000E+00  0.000000000E+00 -1.568170645E+02  1.568170645E+02  0.000000000E+00  0.00000E+00  9.000E+00
      24     2     1     2     0     0 -8.234155997E+01  3.037732781E+01 -1.222678855E+02  1.705281675E+02  8.017172538E+01  0.00000E+00  9.000E+00
     -11     1     3     3     0     0 -9.399220626E+00  1.577722872E+01  8.380076891E+00  2.018643067E+01  5.109988619E-04  0.00000E+00  9.000E+00
      12     1     3     3     0     0 -7.294233935E+01  1.460009909E+01 -1.306479624E+02  1.503417368E+02  4.264961200E-06  0.00000E+00  9.000E+00
       1     1     1     2   511     0  8.234155997E+01 -3.037732781E+01  1.744088356E+02  1.952469116E+02  2.697398305E-06  0.00000E+00  9.000E+00
</event>
<event>
      6    666  1.00000E+00  1.31248E+01 -1.00000E+00  1.82977E-01
      -1    -1     0     0     0   511  0.000000000E+00  0.000000000E+00  1.038052299E+01  1.038052299E+01  0.000000000E+00  0.00000E+00  9.000E+00
       2    -1     0     0   501     0  0.000000000E+00  0.000000000E+00 -4.279977778E+02  4.279977778E+02  0.000000000E+00  0.00000E+00  9.000E+00
      24     2     1     2     0     0 -2.342018476E+00  1.291419551E+01 -4.175164952E+02  4.252530713E+02  7.967364269E+01  0.00000E+00  9.000E+00
     -11     1     3     3     0     0 -2.437304976E+00  4.380065087E+01 -1.604932782E+02  1.663806774E+02  5.110128362E-04  0.00000E+00  9.000E+00
      12     1     3     3     0     0  9.528650005E-02 -3.088645535E+01 -2.570232170E+02  2.588723939E+02  6.607249480E-06  0.00000E+00  9.000E+00
      21     1     1     2   501   511  2.342018476E+00 -1.291419551E+01 -1.007595298E-01  1.312522948E+01  2.423229037E-07  0.00000E+00  9.000E+00
</event>
<event>
      6    666  1.00000E+00  4.69485E+00 -1.00000E+00  2.47993E-01
      -1    -1     0     0     0   511  0.000000000E+00  0.000000000E+00  3.751732631E+00  3.751732631E+00  0.000000000E+00  0.00000E+00  9.000E+00
       2    -1     0     0   501     0  0.000000000E+00  0.000000000E+00 -4.708782232E+02  4.708782232E+02  0.000000000E+00  0.00000E+00  9.000E+00
      24     2     1     2     0     0  1.822528466E+00 -4.326659545E+00 -4.493750891E+02  4.562682063E+02  7.887118459E+01  0.00000E+00  9.000E+00
     -11     1     3     3     0     0 -1.523044489E+01  8.627648308E+00 -2.091574392E+01  2.727400064E+01  5.110059395E-04  0.00000E+00  9.000E+00
      12     1     3     3     0     0  1.705297336E+01 -1.295430785E+01 -4.284593452E+02  4.289942056E+02  1.078959322E-05  0.00000E+00  9.000E+00
      21     1     1     2   501   511 -1.822528466E+00  4.326659545E+00 -1.775140152E+01  1.836174961E+01  3.371747881E-07  0.00000E+00  9.000E+00
</event>
<event>
      6    666  1.00000E+00  2.15426E+01 -1.00000E+00  1.63710E-01
       1    -1     0     0   501     0  0.000000000E+00  0.000000000E+00  2.853689199E+02  2.853689199E+02  0.000000000E+00  0.00000E+00  9.000E+00
      21    -1     0     0   511   501  0.000000000E+00  0.000000000E+00 -1.056473454E+01  1.056473454E+01  0.000000000E+00  0.00000E+00  9.000E+00
     -24     2     1     2     0     0  2.013296111E+01 -7.664735398E+00  2.220204029E+02  2.389230241E+02  8.559829325E+01  0.00000E+00  9.000E+00
      11     1     3     3     0     0 -2.925631831E+01 -9.601576792E+00  1.384258800E+02  1.418091912E+02  5.109843588E-04  0.00000E+00  9.000E+00
     -12     1     3     3     0     0  4.938927942E+01  1.936841394E+00  8.359452291E+01  9.711383288E+01  3.162979880E-06  0.00000E+00  9.000E+00
       2     1     1     2   511     0 -2.013296111E+01  7.664735398E+00  5.278378246E+01  5.701063043E+01  9.536743164E-07  0.00000E+00  9.000E+00
</event>
<event>
      6    666  1.00000E+00  7.62764E+01 -1.00000E+00  1.29335E-01
      -2    -1     0     0     0   501  0.000000000E+00  0.000000000E+00  3.821773319E+02  3.821773319E+02  0.000000000E+00  0.00000E+00  9.000E+00
      21    -1     0     0   501   511  0.000000000E+00  0.000000000E+00 -2.441909887E+01  2.441909887E+01  0.000000000E+00  0.00000E+00  9.000E+00
     -24     2     1     2     0     0  2.812303720E+01  7.090268551E+01  1.603964330E+02  1.950077351E+02  8.051648893E+01  0.00000E+00  9.000E+00
      11     1     3     3     0     0  1.641638719E+01 -5.401301866E+00  3.151180457E-01  1.728499725E+01  5.109990737E-04  0.00000E+00  9.000E+00
     -12     1     3     3     0     0  1.170665001E+01  7.630398738E+01  1.600813150E+02  1.777227379E+02  2.697398305E-06  0.00000E+00  9.000E+00
      -1     1     1     2     0   511 -2.812303720E+01 -7.090268551E+01  1.973618000E+02  2.115886957E+02  3.814697266E-06  0.00000E+00  9.000E+00
</event>
<event>
      6    666  1.00000E+00  6.11620E+00 -1.00000E+00  2.24108E-01
      21    -1     0     0   511   501  0.000000000E+00  0.000000000E+00  3.663804117E+02  3.663804117E+02  0.000000000E+00  0.00000E+00  9.000E+00
       2    -1     0     0   501     0  0.000000000E+00  0.000000000E+00 -1.180493413E+01  1.180493413E+01  0.000000000E+00  0.00000E+00  9.000E+00
      24     2     1     2     0     0  5.632810711E+00 -2.383150541E+00  1.239320985E+02  1.474608862E+02  7.967521544E+01  0.00000E+00  9.000E+00
     -11     1     3     3     0     0  3.602598407E+00  1.359752985E+01  1.296170216E+02  1.303780803E+02  5.110021574E-04  0.00000E+00  9.000E+00
      12     1     3     3     0     0  2.030212305E+00 -1.598068039E+01 -5.684923072E+00  1.708280592E+01  1.192092896E-07  0.00000E+00  9.000E+00
       1     1     1     2   511     0 -5.632810711E+00  2.383150541E+00  2.306433790E+02  2.307244596E+02  4.672030912E-06  0.00000E+00  9.000E+00
</event>
<event>
      6    666  1.00000E+00  5.87023E+00 -1.00000E+00  2.26877E-01
      21    -1     0     0   511   501  0.000000000E+00  0.000000000E+00  2.694344626E+00  2.694344626E+00  0.000000000E+00  0.00000E+00  9.000E+00
       1    -1     0     0   501     0  0.000000000E+00  0.000000000E+00 -7.400008621E+02  7.400008621E+02  0.000000000E+00  0.00000E+00  9.000E+00
     -24     2     1     2     0     0 -5.823980747E+00 -7.354181693E-01 -7.235202824E+02  7.277112196E+02  7.776606293E+01  0.00000E+00  9.000E+00
      11     1     3     3     0     0 -2.559688155E+01 -3.164535910E+01 -4.249157249E+02  4.268606358E+02  5.110270743E-04  0.00000E+00  9.000E+00
     -12     1     3     3     0     0  1.977290080E+01  3.090994093E+01 -2.986045575E+02  3.008505839E+02  7.629394531E-06  0.00000E+00  9.000E+00
       2     1     1     2   511     0  5.823980747E+00  7.354181693E-01 -1.378623503E+01  1.498398705E+01  1.685873940E-07  0.00000E+00  9.000E+00
</event>
<event>
      6    666  1.00000E+00  5.82435E+01 -1.00000E+00  1.35369E-01
       2    -1     0     0   501     0  0.000000000E+00  0.000000000E+00  1.540346546E+03  1.540346546E+03  0.000000000E+00  0.00000E+00  9.000E+00
      21    -1     0     0   511   501  0.000000000E+00  0.000000000E+00 -4.102675957E+00  4.102675957E+00  0.000000000E+00  0.00000E+00  9.000E+00
      24     2     1     2     0     0  2.983347013E+01 -5.002273137E+01  8.952890137E+02  9.008535124E+02  8.125467994E+01  0.00000E+00  9.000E+00
     -11     1     3     3     0     0  2.103454500E+01  1.220522676E+01  9.369698705E+01  9.680157553E+01  5.110163958E-04  0.00000E+00  9.000E+00
      12     1     3     3     0     0  8.798925126E+00 -6.222795813E+01  8.015920267E+02  8.040519368E+02  1.868812365E-05  0.00000E+00  9.000E+00
       1     1     1     2   511     0 -2.983347013E+01  5.002273137E+01  6.409548562E+02  6.435957095E+02  1.321449896E-05  0.00000E+00  9.000E+00
</event>
<event>
      6    666  1.00000E+00  3.88574E+00 -1.00000E+00  2.66361E-01
       1    -1     0     0   501     0  0.000000000E+00  0.000000000E+00  1.664227715E+02  1.664227715E+02  0.000000000E+00  0.00000E+00  9.000E+00
      -2    -1     0     0     0   511  0.000000000E+00  0.000000000E+00 -1.099792645E+01  1.099792645E+01  0.000000000E+00  0.00000E+00  9.000E+00
     -24     2     1     2     0     0 -2.269614422E-01  3.879107489E+00  1.537926303E+02  1.732060674E+02  7.958058580E+01  0.00000E+00  9.000E+00
      11     1     3     3     0     0 -3.744760184E+01  1.048001902E+01  1.013947466E+02  1.085958025E+02  5.109950380E-04  0.00000E+00  9.000E+00
     -12     1     3     3     0     0  3.722064039E+01 -6.600911529E+00  5.239788371E+01  6.461026483E+01  6.743495762E-07  0.00000E+00  9.000E+00
      21     1     1     2   501   511  2.269614422E-01 -3.879107489E+00  1.632214742E+00  4.214630633E+00  9.657056180E-08  0.00000E+00  9.000E+00
</event>
<event>
      6    666  1.00000E+00  1.35788E+00 -1.00000E+00  4.81148E-01
       1    -1     0     0   501     0  0.000000000E+00  0.000000000E+00  1.007100653E+01  1.007100653E+01  0.000000000E+00  0.00000E+00  9.000E+00
      21    -1     0     0   511   501  0.000000000E+00  0.000000000E+00 -2.841323487E+02  2.841323487E+02  0.000000000E+00  0.00000E+00  9.000E+00
     -24     2     1     2     0     0  1.172981406E+00 -6.840724088E-01 -1.526046106E+02  1.727390334E+02  8.092442544E+01  0.00000E+00  9.000E+00
      11     1     3     3     0     0 -3.019836509E+01  3.057619007E+00 -1.982760856E+01  3.625499069E+01  5.109976522E-04  0.00000E+00  9.000E+00
     -12     1     3     3     0     0  3.137134650E+01 -3.741691416E+00 -1.327770021E+02  1.364840427E+02  0.000000000E+00  0.00000E+00  9.000E+00
       2     1     1     2   511     0 -1.172981406E+00  6.840724088E-01 -1.214567316E+02  1.214643218E+02  0.000000000E+00  0.00000E+00  9.000E+00
</event>
<event>
      6    666  1.00000E+00  4.00597E+00 -1.00000E+00  2.63209E-01
      -3    -1     0     0     0   511  0.000000000E+00  0.000000000E+00  9.383509686E+01  9.383509686E+01  0.000000000E+00  0.00000E+00  9.000E+00
       4    -1     0     0   501     0  0.000000000E+00  0.000000000E+00 -2.658012942E+01  2.658012942E+01  0.000000000E+00  0.00000E+00  9.000E+00
      24     2     1     2     0     0  1.758417671E+00  3.599412859E+00  3.510814008E+01  8.801975876E+01  8.061543666E+01  0.00000E+00  9.000E+00
     -11     1     3     3     0     0 -2.360385717E+01  4.435947521E+00  5.217567594E+01  5.743797405E+01  5.109990427E-04  0.00000E+00  9.000E+00
      12     1     3     3     0     0  2.536227485E+01 -8.365346625E-01 -1.706753586E+01  3.058178471E+01  7.539457465E-07  0.00000E+00  9.000E+00
      21     1     1     2   501   511 -1.758417671E+00 -3.599412859E+00  3.214682737E+01  3.239546752E+01  4.768371582E-07  0.00000E+00  9.000E+00
</event>
<event>
      6    666  1.00000E+00  3.59893E+00 -1.00000E+00  2.74655E-01
      -1    -1     0     0     0   501  0.000000000E+00  0.000000000E+00  8.439308265E+00  8.439308265E+00  0.000000000E+00  0.00000E+00  9.000E+00
       2    -1     0     0   511     0  0.000000000E+00  0.000000000E+00 -5.201790730E+02  5.201790730E+02  0.000000000E+00  0.00000E+00  9.000E+00
      24     2     1     2     0     0 -1.804673124E-01 -3.594399349E+00 -1.799732662E+02  1.968323631E+02  7.962192133E+01  0.00000E+00  9.000E+00
     -11     1     3     3     0     0 -2.753613950E+00 -3.125534014E+01 -2.711220501E+01  4.146746120E+01  5.110011562E-04  0.00000E+00  9.000E+00
      12     1     3     3     0     0  2.573146637E+00  2.766094079E+01 -1.528610612E+02  1.553649019E+02  2.697398305E-06  0.00000E+00  9.000E+00
      21     1     1     2   511   501  1.804673124E-01  3.594399349E+00 -3.317664985E+02  3.317860181E+02  0.000000000E+00  0.00000E+00  9.000E+00
</event>
<event>
      6    666  1.00000E+00  5.27411E+00 -1.00000E+00  2.34451E-01
       2    -1     0     0   501     0  0.000000000E+00  0.000000000E+00  2.901668872E+02  2.901668872E+02  0.000000000E+00  0.00000E+00  9.000E+00
      -1    -1     0     0     0   511  0.000000000E+00  0.000000000E+00 -6.548800959E+00  6.548800959E+00  0.000000000E+00  0.00000E+00  9.000E+00
      24     2     1     2     0     0 -1.962808645E+00  4.895265816E+00  2.767820980E+02  2.880816288E+02  7.971749406E+01  0.00000E+00  9.000E+00
     -11     1     3     3     0     0 -3.488299795E+01  2.146170796E+01  1.126883247E+02  1.199003210E+02  5.110128362E-04  0.00000E+00  9.000E+00
      12     1     3     3     0     0  3.292018931E+01 -1.656644215E+01  1.640937732E+02  1.681813078E+02  4.672030912E-06  0.00000E+00  9.000E+00
      21     1     1     2   501   511  1.962808645E+00 -4.895265816E+00  6.835988301E+00  8.634059372E+00  1.460009660E-07  0.00000E+00  9.000E+00
</event>
<event>
      6    666  1.00000E+00  5.16444E+00 -1.00000E+00  2.36000E-01
       1    -1     0     0   501     0  0.000000000E+00  0.000000000E+00  7.174498234E+01  7.174498234E+01  0.000000000E+00  0.00000E+00  9.000E+00
      -2    -1     0     0     0   511  0.000000000E+00  0.000000000E+00 -2.562252659E+01  2.562252659E+01  0.000000000E+00  0.00000E+00  9.000E+00
     -24     2     1     2     0     0 -2.166306040E+00 -4.688133121E+00  4.367703485E+01  9.165335480E+01  8.041133377E+01  0.00000E+00  9.000E+00
      11     1     3     3     0     0  2.235833199E+01  3.011159965E+01  2.555579801E+01  4.538394270E+01  5.109989314E-04  0.00000E+00  9.000E+00
     -12     1     3     3     0     0 -2.452463803E+01 -3.479973277E+01  1.812123684E+01  4.626941210E+01  8.596304120E-07  0.00000E+00  9.000E+00
      21     1     1     2   501   511  2.166306040E+00  4.688133121E+00  2.445420902E+00  5.714154129E+00  1.228781231E-07  0.00000E+00  9.000E+00
</event>
<event>
      6    666  1.00000E+00  1.73871E+01 -1.00000E+00  1.71503E-01
      21    -1     0     0   511   501  0.000000000E+00  0.000000000E+00  3.078297741E+02  3.078297741E+02  0.000000000E+00  0.00000E+00  9.000E+00
       1    -1     0     0   501     0  0.000000000E+00  0.000000000E+00 -9.313007603E+00  9.313007603E+00  0.000000000E+00  0.00000E+00  9.000E+00
     -24     2     1     2     0     0  1.042004158E+01 -1.391881020E+01  2.107649387E+02  2.276850049E+02  8.435811484E+01  0.00000E+00  9.000E+00
      11     1     3     3     0     0  1.453467987E+01  2.319594376E+01  2.159940291E+01  3.486893936E+01  5.109983752E-04  0.00000E+00  9.000E+00
     -12     1     3     3     0     0 -4.114638284E+00 -3.711475397E+01  1.891655357E+02  1.928160655E+02  5.394796609E-06  0.00000E+00  9.000E+00
       2     1     1     2   511     0 -1.042004158E+01  1.391881020E+01  8.775182785E+01  8.945777683E+01  9.536743164E-07  0.00000E+00  9.000E+00
</event>
<event>
      6    666  1.00000E+00  5.80710E+00 -1.00000E+00  2.27619E-01
      21    -1     0     0   511   501  0.000000000E+00  0.000000000E+00  1.494780000E+00  1.494780000E+00  0.000000000E+00  0.00000E+00  9.000E+00
       1    -1     0     0   501     0  0.000000000E+00  0.000000000E+00 -1.499468658E+03  1.499468658E+03  0.000000000E+00  0.00000E+00  9.000E+00
     -24     2     1     2     0     0  5.803609166E+00  2.013812563E-01 -1.475942850E+03  1.478179921E+03  8.108551761E+01  0.00000E+00  9.000E+00
      11     1     3     3     0     0 -3.257724945E+01  8.552924596E+00 -1.017547369E+03  1.018104650E+03  5.105427559E-04  0.00000E+00  9.000E+00
     -12     1     3     3     0     0  3.838085862E+01 -8.351543339E+00 -4.583954805E+02  4.600752711E+02  1.705984480E-05  0.00000E+00  9.000E+00
       2     1     1     2   511     0 -5.803609166E+00 -2.013812563E-01 -2.203102825E+01  2.278351684E+01  1.327458468E-06  0.00000E+00  9.000E+00
</event>
<event>
      6    666  1.00000E+00  4.63950E+00 -1.00000E+00  2.49066E-01
       2    -1     0     0   501     0  0.000000000E+00  0.000000000E+00  2.567592157E+02  2.567592157E+02  0.000000000E+00  0.00000E+00  9.000E+00
      -1    -1     0     0     0   511  0.000000000E+00  0.000000000E+00 -7.735416446E+00  7.735416446E+00  0.000000000E+00  0.00000E+00  9.000E+00
      24     2     1     2     0     0 -4.391092875E+00 -1.497751303E+00  2.465115668E+02  2.592186235E+02  8.003010195E+01  0.00000E+00  9.000E+00
     -11     1     3     3     0     0 -1.093525590E+01  1.435807047E+01  7.422139101E+00  1.951466521E+01  5.109971168E-04  0.00000E+00  9.000E+00
      12     1     3     3     0     0  6.544163021E+00 -1.585582178E+01  2.390894277E+02  2.397039583E+02  6.607249480E-06  0.00000E+00  9.000E+00
      21     1     1     2   501   511  4.391092875E+00  1.497751303E+00  2.512232393E+00  5.276008643E+00  5.161913656E-08  0.00000E+00  9.000E+00
</event>
<event>
      6    666  1.00000E+00  4.65599E+00 -1.00000E+00  2.48744E-01
      -1    -1     0     0     0   501  0.000000000E+00  0.000000000E+00  1.644465705E+00  1.644465705E+00  0.000000000E+00  0.00000E+00  9.000E+00
       2    -1     0     0   511     0  0.000000000E+00  0.000000000E+00 -1.116584336E+03  1.116584336E+03  0.000000000E+00  0.00000E+00  9.000E+00
      24     2     1     2     0     0 -4.585861362E+00  8.050485075E-01 -1.040919835E+03  1.044062476E+03  8.081257882E+01  0.00000E+00  9.000E+00
     -11     1     3     3     0     0 -3.116247881E+01 -2.420766686E+01 -3.580051964E+02  3.601733359E+02  5.110413120E-04  0.00000E+00  9.000E+00
      12     1     3     3     0     0  2.657661745E+01  2.501271537E+01 -6.829146390E+02  6.838891406E+02  0.000000000E+00  0.00000E+00  9.000E+00
      21     1     1     2   511   501  4.585861362E+00 -8.050485075E-01 -7.402003544E+01  7.416632574E+01  0.000000000E+00  0.00000E+00  9.000E+00
</event>
<event>
      6    666  1.00000E+00  2.42895E+01 -1.00000E+00  1.59656E-01
      21    -1     0     0   511   501  0.000000000E+00  0.000000000E+00  6.695347081E+00  6.695347081E+00  0.000000000E+00  0.00000E+00  9.000E+00
       2    -1     0     0   501     0  0.000000000E+00  0.000000000E+00 -6.598586957E+02  6.598586957E+02  0.000000000E+00  0.00000E+00  9.000E+00
      24     2     1     2     0     0 -1.710323261E+01  1.724703007E+01 -6.187121585E+02  6.244011649E+02  8.051148394E+01  0.00000E+00  9.000E+00
     -11     1     3     3     0     0  2.107912404E+01 -2.000156978E+01 -2.815438102E+02  2.830394130E+02  5.109701195E-04  0.00000E+00  9.000E+00
      12     1     3     3     0     0 -3.818235665E+01  3.724859984E+01 -3.371683483E+02  3.413617519E+02  0.000000000E+00  0.00000E+00  9.000E+00
       1     1     1     2   511     0  1.710323261E+01 -1.724703007E+01 -3.445119005E+01  4.215287781E+01  4.768371582E-07  0.00000E+00  9.000E+00
</event>
<event>
      6    666  1.00000E+00  6.44115E+00 -1.00000E+00  2.20716E-01
       3    -1     0     0   501     0  0.000000000E+00  0.000000000E+00  1.498325675E+01  1.498325675E+01  0.000000000E+00  0.00000E+00  9.000E+00
      21    -1     0     0   511   501  0.000000000E+00  0.000000000E+00 -6.172451136E+02  6.172451136E+02  0.000000000E+00  0.00000E+00  9.000E+00
     -24     2     1     2     0     0 -6.225116890E+00  1.654187791E+00 -7.560287191E+01  1.055299986E+02  7.334369733E+01  0.00000E+00  9.000E+00
      11     1     3     3     0     0  1.100950769E+01  3.146723819E+01 -5.789567589E+01  6.680797577E+01  5.109994876E-04  0.00000E+00  9.000E+00
     -12     1     3     3     0     0 -1.723462458E+01 -2.981305040E+01 -1.770719602E+01  3.872202280E+01  5.840038640E-07  0.00000E+00  9.000E+00
       4     1     1     2   511     0  6.225116890E+00 -1.654187791E+00 -5.266589850E+02  5.266983718E+02  7.629394531E-06  0.00000E+00  9.000E+00
</event>
<event>
      6    666  1.00000E+00  3.66592E+00 -1.00000E+00  2.72610E-01
      -1    -1     0     0     0   511  0.000000000E+00  0.000000000E+00  2.735356749E+00  2.735356749E+00  0.000000000E+00  0.00000E+00  9.000E+00
       2    -1     0     0   501     0  0.000000000E+00  0.000000000E+00 -7.460342221E+02  7.460342221E+02  0.000000000E+00  0.00000E+00  9.000E+00
      24     2     1     2     0     0  1.440960649E+00 -3.370844145E+00 -7.365450174E+02  7.410849566E+02  8.182243696E+01  0.00000E+00  9.000E+00
     -11     1     3     3     0     0 -3.392752788E+01 -2.853943812E+00 -1.666067930E+02  1.700501268E+02  5.110163958E-04  0.00000E+00  9.000E+00
      12     1     3     3     0     0  3.536848853E+01 -5.169003329E-01 -5.699382244E+02  5.710348298E+02  7.629394531E-06  0.00000E+00  9.000E+00
      21     1     1     2   501   511 -1.440960649E+00  3.370844145E+00 -6.753847898E+00  7.684622260E+00  8.429369702E-08  0.00000E+00  9.000E+00
</event>
<event>
      6    666  1.00000E+00  1.04406E+01 -1.00000E+00  1.93560E-01
       1    -1     0     0   501     0  0.000000000E+00  0.000000000E+00  7.626203449E+01  7.626203449E+01  0.000000000E+00  0.00000E+00  9.000E+00
      21    -1     0     0   511   501  0.000000000E+00  0.000000000E+00 -5.552561511E+01  5.552561511E+01  0.000000000E+00  0.00000E+00  9.000E+00
     -24     2     1     2     0     0  5.196884311E+00  9.055333762E+00  5.647069433E+01  9.455936624E+01  7.512341679E+01  0.00000E+00  9.000E+00
      11     1     3     3     0     0 -1.126336170E+01  2.589298390E+01  6.390637009E+01  6.986654472E+01  5.109985977E-04  0.00000E+00  9.000E+00
     -12     1     3     3     0     0  1.646024601E+01 -1.683765013E+01 -7.435675768E+00  2.469282153E+01  7.001960352E-07  0.00000E+00  9.000E+00
       2     1     1     2   511     0 -5.196884311E+00 -9.055333762E+00 -3.573427495E+01  3.722828336E+01  0.000000000E+00  0.00000E+00  9.000E+00
</event>
<event>
      6    666  1.00000E+00  1.44168E+01 -1.00000E+00  1.78973E-01
      -2    -1     0     0     0   501  0.000000000E+00  0.000000000E+00  2.983138295E+00  2.983138295E+00  0.000000000E+00  0.00000E+00  9.000E+00
       1    -1     0     0   511     0  0.000000000E+00  0.000000000E+00 -8.372514516E+02  8.372514516E+02  0.000000000E+00  0.00000E+00  9.000E+00
     -24     2     1     2     0     0 -1.394433132E+01  3.660493569E+00 -6.087447172E+02  6.142506613E+02  8.078304638E+01  0.00000E+00  9.000E+00
      11     1     3     3     0     0  4.969941259E+00 -3.651018531E+01 -2.337233039E+02  2.366099675E+02  5.109772392E-04  0.00000E+00  9.000E+00
     -12     1     3     3     0     0 -1.891427258E+01  4.017067888E+01 -3.750214133E+02  3.776406938E+02  5.394796609E-06  0.00000E+00  9.000E+00
      21     1     1     2   511   501  1.394433132E+01 -3.660493569E+00 -2.255235961E+02  2.259839286E+02  2.697398305E-06  0.00000E+00  9.000E+00
</event>
<event>
      6    666  1.00000E+00  1.03913E+01 -1.00000E+00  1.93793E-01
      -2    -1     0     0     0   511  0.000000000E+00  0.000000000E+00  3.321293199E+02  3.321293199E+02  0.000000000E+00  0.00000E+00  9.000E+00
       1    -1     0     0   501     0  0.000000000E+00  0.000000000E+00 -1.106039301E+01  1.106039301E+01  0.000000000E+00  0.00000E+00  9.000E+00
     -24     2     1     2     0     0 -9.845716532E+00  3.322675052E+00  1.429083426E+02  1.647263495E+02  8.126498332E+01  0.00000E+00  9.000E+00
      11     1     3     3     0     0 -3.117548958E+01 -2.903874207E+01  8.441823967E+01  9.456002792E+01  5.109977078E-04  0.00000E+00  9.000E+00
     -12     1     3     3     0     0  2.132977304E+01  3.236141712E+01  5.849010296E+01  7.016632156E+01  1.168007728E-06  0.00000E+00  9.000E+00
      21     1     1     2   501   511  9.845716532E+00 -3.322675052E+00  1.781605843E+02  1.784633635E+02  0.000000000E+00  0.00000E+00  9.000E+00
</event>
<event>
      6    666  1.00000E+00  2.28815E+00 -1.00000E+00  3.37643E-01
      21    -1     0     0   501   511  0.000000000E+00  0.000000000E+00  8.354337374E+00  8.354337374E+00  0.000000000E+00  0.00000E+00  9.000E+00
      -2    -1     0     0     0   501  0.000000000E+00  0.000000000E+00 -4.728077553E+02  4.728077553E+02  0.000000000E+00  0.00000E+00  9.000E+00
     -24     2     1     2     0     0 -2.301546425E-02 -2.288035100E+00 -4.690952667E+02  4.759869217E+02  8.067183338E+01  0.00000E+00  9.000E+00
      11     1     3     3     0     0 -8.134561482E+00 -1.313404533E+01 -1.449329790E+01  2.118324625E+01  5.109987924E-04  0.00000E+00  9.000E+00
     -12     1     3     3     0     0  8.111546018E+00  1.084601023E+01 -4.546019688E+02  4.548036754E+02  7.629394531E-06  0.00000E+00  9.000E+00
      -1     1     1     2     0   511  2.301546425E-02  2.288035100E+00  4.641848816E+00  5.175170989E+00  4.578319638E-07  0.00000E+00  9.000E+00
</event>
<event>
      6    666  1.00000E+00  4.97803E+00 -1.00000E+00  2.42834E-01
      -1    -1     0     0     0   511  0.000000000E+00  0.000000000E+00  7.292138128E+00  7.292138128E+00  0.000000000E+00  0.00000E+00  9.000E+00
       2    -1     0     0   501     0  0.000000000E+00  0.000000000E+00 -5.065064858E+02  5.065064858E+02  0.000000000E+00  0.00000E+00  9.000E+00
      24     2     1     2     0     0 -3.482633495E+00 -3.556967449E+00 -5.009563661E+02  5.085245950E+02  8.726512628E+01  0.00000E+00  9.000E+00
     -11     1     3     3     0     0 -1.015368767E+01 -2.464624839E+01 -4.702371845E+01  5.405335355E+01  5.109977078E-04  0.00000E+00  9.000E+00
      12     1     3     3     0     0  6.671054171E+00  2.108928094E+01 -4.539326476E+02  4.544712415E+02  1.078959322E-05  0.00000E+00  9.000E+00
      21     1     1     2   501   511  3.482633495E+00  3.556967449E+00  1.742018362E+00  5.274028960E+00  3.291774099E-07  0.00000E+00  9.000E+00
</event>
<event>
      6    666  1.00000E+00  8.98353E+00 -1.00000E+00  2.01235E-01
       1    -1     0     0   501     0  0.000000000E+00  0.000000000E+00  2.146618840E+02  2.146618840E+02  0.000000000E+00  0.00000E+00  9.000E+00
      21    -1     0     0   511   501  0.000000000E+00  0.000000000E+00 -8.482472048E+00  8.482472048E+00  0.000000000E+00  0.00000E+00  9.000E+00
     -24     2     1     2     0     0 -4.017279556E+00  8.035257491E+00  1.658875644E+02  1.818631633E+02  7.399204171E+01  0.00000E+00  9.000E+00
      11     1     3     3     0     0  9.647804244E+00  3.907307818E+01  9.904554922E+01  1.069102726E+02  5.109932582E-04  0.00000E+00  9.000E+00
     -12     1     3     3     0     0 -1.366508380E+01 -3.103782069E+01  6.684201522E+01  7.495289072E+01  9.536743164E-07  0.00000E+00  9.000E+00
       2     1     1     2   511     0  4.017279556E+00 -8.035257491E+00  4.029184756E+01  4.128119278E+01  6.743495762E-07  0.00000E+00  9.000E+00
</event>
<event>
      6    666  1.00000E+00  3.36559E+01 -1.00000E+00  1.49617E-01
       4    -1     0     0   501     0  0.000000000E+00  0.000000000E+00  2.099908218E+01  2.099908218E+01  0.000000000E+00  0.00000E+00  9.000E+00
      21    -1     0     0   511   501  0.000000000E+00  0.000000000E+00 -2.185961507E+02  2.185961507E+02  0.000000000E+00  0.00000E+00  9.000E+00
      24     2     1     2     0     0 -2.811654904E+01 -1.849800790E+01 -1.841718080E+02  2.033605224E+02  7.939477672E+01  0.00000E+00  9.000E+00
     -11     1     3     3     0     0  9.562847044E+00  1.099422688E+01 -1.310838370E+02  1.318912180E+02  5.110057170E-04  0.00000E+00  9.000E+00
      12     1     3     3     0     0 -3.767939608E+01 -2.949223478E+01 -5.308797106E+01  7.146930441E+01  1.168007728E-06  0.00000E+00  9.000E+00
       3     1     1     2   511     0  2.811654904E+01  1.849800790E+01 -1.342526052E+01  3.623471051E+01  6.078504936E-07  0.00000E+00  9.000E+00
</event>
<event>
      6    666  1.00000E+00  4.17893E+00 -1.00000E+00  2.58967E-01
      -2    -1     0     0     0   501  0.000000000E+00  0.000000000E+00  6.631219396E+01  6.631219396E+01  0.000000000E+00  0.00000E+00  9.000E+00
       1    -1     0     0   511     0  0.000000000E+00  0.000000000E+00 -2.730125307E+01  2.730125307E+01  0.000000000E+00  0.00000E+00  9.000E+00
     -24     2     1     2     0     0 -3.098634790E+00  2.803906058E+00  4.005247270E+01  8.930668313E+01  7.971210483E+01  0.00000E+00  9.000E+00
      11     1     3     3     0     0 -7.393112842E+00  1.311799774E+01 -2.177695627E+01  2.647594770E+01  5.109999326E-04  0.00000E+00  9.000E+00
     -12     1     3     3     0     0  4.294478053E+00 -1.031409168E+01  6.182942897E+01  6.283073543E+01  9.536743164E-07  0.00000E+00  9.000E+00
      21     1     1     2   511   501  3.098634790E+00 -2.803906058E+00 -1.041531811E+00  4.306763896E+00  9.996002812E-08  0.00000E+00  9.000E+00
</event>
<event>
      6    666  1.00000E+00  3.77655E+01 -1.00000E+00  1.46374E-01
       1    -1     0     0   501     0  0.000000000E+00  0.000000000E+00  5.270156277E+02  5.270156277E+02  0.000000000E+00  0.00000E+00  9.000E+00
      -2    -1     0     0     0   511  0.000000000E+00  0.000000000E+00 -8.175018215E+00  8.175018215E+00  0.000000000E+00  0.00000E+00  9.000E+00
     -24     2     1     2     0     0 -2.577663612E+01 -2.760074939E+01  4.201326440E+02  4.295047964E+02  8.084983144E+01  0.00000E+00  9.000E+00
      11     1     3     3     0     0  1.330920104E+01  1.630677503E+01  2.175446612E+02  2.185605759E+02  5.109701195E-04  0.00000E+00  9.000E+00
     -12     1     3     3     0     0 -3.908583716E+01 -4.390752443E+01  2.025879828E+02  2.109442205E+02  3.814697266E-06  0.00000E+00  9.000E+00
      21     1     1     2   501   511  2.577663612E+01  2.760074939E+01  9.870796551E+01  1.056858495E+02  1.907348633E-06  0.00000E+00  9.000E+00
</event>
<event>
      6    666  1.00000E+00  1.58885E+01 -1.00000E+00  1.75015E-01
      -2    -1     0     0     0   501  0.000000000E+00  0.000000000E+00  1.058467386E+01  1.058467386E+01  0.000000000E+00  0.00000E+00  9.000E+00
       1    -1     0     0   511     0  0.000000000E+00  0.000000000E+00 -2.674180554E+02  2.674180554E+02  0.000000000E+00  0.00000E+00  9.000E+00
     -24     2     1     2     0     0  1.069585035E+01  1.174911423E+01 -1.643003064E+02  1.841154942E+02  8.155661618E+01  0.00000E+00  9.000E+00
      11     1     3     3     0     0 -7.246735950E+00 -1.899318613E+01 -1.389172532E+02  1.403967932E+02  5.109985977E-04  0.00000E+00  9.000E+00
     -12     1     3     3     0     0  1.794258630E+01  3.074230035E+01 -2.538305322E+01  4.371870109E+01  1.118282261E-06  0.00000E+00  9.000E+00
      21     1     1     2   511   501 -1.069585035E+01 -1.174911423E+01 -9.253307512E+01  9.388723498E+01  0.000000000E+00  0.00000E+00  9.000E+00
</event>
<event>
      6    666  1.00000E+00  2.20996E+01 -1.00000E+00  1.62830E-01
       2    -1     0     0   501     0  0.000000000E+00  0.000000000E+00  2.495207064E+02  2.495207064E+02  0.000000000E+00  0.00000E+00  9.000E+00
      21    -1     0     0   511   501  0.000000000E+00  0.000000000E+00 -1.042920917E+02  1.042920917E+02  0.000000000E+00  0.00000E+00  9.000E+00
      24     2     1     2     0     0  2.084143846E+01 -7.350414191E+00  2.415201564E+02  2.550177823E+02  7.882695703E+01  0.00000E+00  9.000E+00
     -11     1     3     3     0     0 -5.589000212E+00  2.596930527E+01  3.380447336E+01  4.299283846E+01  5.109941481E-04  0.00000E+00  9.000E+00
      12     1     3     3     0     0  2.643043867E+01 -3.331971946E+01  2.077156831E+02  2.120249438E+02  2.697398305E-06  0.00000E+00  9.000E+00
       1     1     1     2   511     0 -2.084143846E+01  7.350414191E+00 -9.629154169E+01  9.879501580E+01  1.907348633E-06  0.00000E+00  9.000E+00
</event>
<event>
      6    666  1.00000E+00  1.88451E+01 -1.00000E+00  1.68486E-01
       2    -1     0     0   501     0  0.000000000E+00  0.000000000E+00  5.405725804E+02  5.405725804E+02  0.000000000E+00  0.00000E+00  9.000E+00
      21    -1     0     0   511   501  0.000000000E+00  0.000000000E+00 -8.399405731E+00  8.399405731E+00  0.000000000E+00  0.00000E+00  9.000E+00
      24     2     1     2     0     0  8.718772993E+00  1.670689237E+01  5.201258355E+02  5.266051438E+02  8.016829450E+01  0.00000E+00  9.000E+00
     -11     1     3     3     0     0  5.604486999E+00 -1.605628790E+01  2.414141365E+01  2.953002724E+01  5.109951493E-04  0.00000E+00  9.000E+00
      12     1     3     3     0     0  3.114285994E+00  3.276318027E+01  4.959844219E+02  4.970751165E+02  1.618438983E-05  0.00000E+00  9.000E+00
       1     1     1     2   511     0 -8.718772993E+00 -1.670689237E+01  1.204733914E+01  2.236684233E+01  8.085167388E-07  0.00000E+00  9.000E+00
</event>
<event>
      6    666  1.00000E+00  5.24217E+00 -1.00000E+00  2.34897E-01
      -3    -1     0     0     0   501  0.000000000E+00  0.000000000E+00  3.314963296E+01  3.314963296E+01  0.000000000E+00  0.00000E+00  9.000E+00
      21    -1     0     0   501   511  0.000000000E+00  0.000000000E+00 -5.821093634E+01  5.821093634E+01  0.000000000E+00  0.00000E+00  9.000E+00
      24     2     1     2     0     0  4.994953901E+00 -1.590829474E+00 -2.664633607E+01  8.588401642E+01  8.147733885E+01  0.00000E+00  9.000E+00
     -11     1     3     3     0     0 -2.275103258E+01  1.886560791E+01  1.390312698E+01  3.266217362E+01  5.109991539E-04  0.00000E+00  9.000E+00
      12     1     3     3     0     0  2.774598648E+01 -2.045643739E+01 -4.054946306E+01  5.322184280E+01  4.768371582E-07  0.00000E+00  9.000E+00
      -4     1     1     2     0   511 -4.994953901E+00  1.590829474E+00  1.585032691E+00  5.476552887E+00  8.940696716E-08  0.00000E+00  9.000E+00
</event>
<event>
      6    666  1.00000E+00  6.16115E+01 -1.00000E+00  1.34064E-01
      21    -1     0     0   511   501  0.000000000E+00  0.000000000E+00  7.242057405E+02  7.242057405E+02  0.000000000E+00  0.00000E+00  9.000E+00
       2    -1     0     0   501     0  0.000000000E+00  0.000000000E+00 -9.154506908E+00  9.154506908E+00  0.000000000E+00  0.00000E+00  9.000E+00
      24     2     1     2     0     0  6.138439162E+01  5.285268855E+00  4.106622952E+02  4.227984928E+02  7.949256080E+01  0.00000E+00  9.000E+00
     -11     1     3     3     0     0  6.753533199E+01 -1.784883664E+01  2.248578276E+02  2.354583714E+02  5.109772392E-04  0.00000E+00  9.000E+00
      12     1     3     3     0     0 -6.150940364E+00  2.313410550E+01  1.858044676E+02  1.873401214E+02  3.814697266E-06  0.00000E+00  9.000E+00
       1     1     1     2   511     0 -6.138439162E+01 -5.285268855E+00  3.043889384E+02  3.105617546E+02  6.607249480E-06  0.00000E+00  9.000E+00
</event>
<event>
      6    666  1.00000E+00  1.25396E+01 -1.00000E+00  1.84990E-01
      21    -1     0     0   511   501  0.000000000E+00  0.000000000E+00  1.638968764E+02  1.638968764E+02  0.000000000E+00  0.00000E+00  9.000E+00
       2    -1     0     0   501     0  0.000000000E+00  0.000000000E+00 -1.352029137E+01  1.352029137E+01  0.000000000E+00  0.00000E+00  9.000E+00
      24     2     1     2     0     0 -6.290565756E+00 -1.084757458E+01  1.238891925E+02  1.481114848E+02  8.019500494E+01  0.00000E+00  9.000E+00
     -11     1     3     3     0     0  2.116452568E+01 -3.160490553E+01  9.775735451E+01  1.048966518E+02  5.109932582E-04  0.00000E+00  9.000E+00
      12     1     3     3     0     0 -2.745509143E+01  2.075733094E+01  2.613183804E+01  4.321483302E+01  7.539457465E-07  0.00000E+00  9.000E+00
       1     1     1     2   511     0  6.290565756E+00  1.084757458E+01  2.648739248E+01  2.930568293E+01  3.371747881E-07  0.00000E+00  9.000E+00
</event>
<event>
      6    666  1.00000E+00  2.31016E+00 -1.00000E+00  3.35992E-01
       1    -1     0     0   501     0  0.000000000E+00  0.000000000E+00  2.653427544E+01  2.653427544E+01  0.000000000E+00  0.00000E+00  9.000E+00
      -2    -1     0     0     0   511  0.000000000E+00  0.000000000E+00 -8.152535956E+01  8.152535956E+01  0.000000000E+00  0.00000E+00  9.000E+00
     -24     2     1     2     0     0 -1.571213457E+00 -1.693554657E+00 -3.265336900E+01  8.560277956E+01  7.909650133E+01  0.00000E+00  9.000E+00
      11     1     3     3     0     0  2.558537697E+01 -2.424650462E+01  3.067379353E+00  3.538238711E+01  5.109991383E-04  0.00000E+00  9.000E+00
     -12     1     3     3     0     0 -2.715659043E+01  2.255294997E+01 -3.572074835E+01  5.022039246E+01  0.000000000E+00  0.00000E+00  9.000E+00
      21     1     1     2   501   511  1.571213457E+00  1.693554657E+00 -2.233771512E+01  2.245685544E+01  0.000000000E+00  0.00000E+00  9.000E+00
</event>
<event>
      6    666  1.00000E+00  8.39406E+01 -1.00000E+00  1.27323E-01
      -4    -1     0     0     0   501  0.000000000E+00  0.000000000E+00  9.040671265E+02  9.040671265E+02  0.000000000E+00  0.00000E+00  9.000E+00
      21    -1     0     0   501   511  0.000000000E+00  0.000000000E+00 -1.647176752E+01  1.647176752E+01  0.000000000E+00  0.00000E+00  9.000E+00
     -24     2     1     2     0     0 -6.402772145E+01  5.428150653E+01  7.521726837E+02  7.612111436E+02  8.144094794E+01  0.00000E+00  9.000E+00
      11     1     3     3     0     0 -3.828255671E+01 -4.590109992E+00  4.804471591E+02  4.819918007E+02  5.111124946E-04  0.00000E+00  9.000E+00
     -12     1     3     3     0     0 -2.574516474E+01  5.887161652E+01  2.717255246E+02  2.792193429E+02  3.814697266E-06  0.00000E+00  9.000E+00
      -3     1     1     2     0   511  6.402772145E+01 -5.428150653E+01  1.354226752E+02  1.593277504E+02  2.697398305E-06  0.00000E+00  9.000E+00
</event>
<event>
      6    666  1.00000E+00  3.95602E+00 -1.00000E+00  2.64497E-01
       2    -1     0     0   511     0  0.000000000E+00  0.000000000E+00  3.101052258E+02  3.101052258E+02  0.000000000E+00  0.00000E+00  9.000E+00
      -1    -1     0     0     0   501  0.000000000E+00  0.000000000E+00 -5.375556583E+00  5.375556583E+00  0.000000000E+00  0.00000E+00  9.000E+00
      24     2     1     2     0     0  1.738703638E+00  3.553447304E+00  2.897332216E+02  2.999713170E+02  7.760026541E+01  0.00000E+00  9.000E+00
     -11     1     3     3     0     0  1.791252048E+01 -2.754931000E+01  6.845814870E+01  7.593642733E+01  5.110021574E-04  0.00000E+00  9.000E+00
      12     1     3     3     0     0 -1.617381685E+01  3.110275730E+01  2.212750729E+02  2.240348896E+02  3.814697266E-06  0.00000E+00  9.000E+00
      21     1     1     2   511   501 -1.738703638E+00 -3.553447304E+00  1.499644755E+01  1.550946540E+01  1.685873940E-07  0.00000E+00  9.000E+00
</event>
<event>
      6    666  1.00000E+00  2.55796E+01 -1.00000E+00  1.57971E-01
      -2    -1     0     0     0   501  0.000000000E+00  0.000000000E+00  8.841459057E+00  8.841459057E+00  0.000000000E+00  0.00000E+00  9.000E+00
      21    -1     0     0   501   511  0.000000000E+00  0.000000000E+00 -3.569268857E+02  3.569268857E+02  0.000000000E+00  0.00000E+00  9.000E+00
     -24     2     1     2     0     0 -2.557585844E+01 -4.378569615E-01 -2.354298289E+02  2.502451871E+02  8.087727167E+01  0.00000E+00  9.000E+00
      11     1     3     3     0     0  2.753181151E+01 -1.250300048E+01 -9.071613634E+01  9.562292119E+01  5.109950380E-04  0.00000E+00  9.000E+00
     -12     1     3     3     0     0 -5.310766995E+01  1.206514352E+01 -1.447136925E+02  1.546222659E+02  2.697398305E-06  0.00000E+00  9.000E+00
      -1     1     1     2     0   511  2.557585844E+01  4.378569615E-01 -1.126555978E+02  1.155231577E+02  1.907348633E-06  0.00000E+00  9.000E+00
</event>
<event>
      6    666  1.00000E+00  6.69290E+00 -1.00000E+00  2.18271E-01
       2    -1     0     0   501     0  0.000000000E+00  0.000000000E+00  7.257606923E+02  7.257606923E+02  0.000000000E+00  0.00000E+00  9.000E+00
      21    -1     0     0   511   501  0.000000000E+00  0.000000000E+00 -4.415415515E+01  4.415415515E+01  0.000000000E+00  0.00000E+00  9.000E+00
      24     2     1     2     0     0 -6.095282135E+00 -2.764494519E+00  7.232089906E+02  7.277774647E+02  8.114184531E+01  0.00000E+00  9.000E+00
     -11     1     3     3     0     0  2.618645437E+01 -2.572442562E+00  9.055425134E+01  9.429963038E+01  5.109772392E-04  0.00000E+00  9.000E+00
      12     1     3     3     0     0 -3.228173651E+01 -1.920519569E-01  6.326547393E+02  6.334778343E+02  2.288818359E-05  0.00000E+00  9.000E+00
       1     1     1     2   511     0  6.095282135E+00  2.764494519E+00 -4.160245346E+01  4.213738279E+01  6.743495762E-07  0.00000E+00  9.000E+00
</event>
<event>
      6    666  1.00000E+00  1.72713E+01 -1.00000E+00  1.71758E-01
      -2    -1     0     0     0   501  0.000000000E+00  0.000000000E+00  2.427213639E+01  2.427213639E+01  0.000000000E+00  0.00000E+00  9.000E+00
      21    -1     0     0   501   511  0.000000000E+00  0.000000000E+00 -2.781280620E+02  2.781280620E+02  0.000000000E+00  0.00000E+00  9.000E+00
     -24     2     1     2     0     0 -1.637353330E+01 -5.496043418E+00 -4.872561927E+01  9.654407954E+01  8.153695013E+01  0.00000E+00  9.000E+00
      11     1     3     3     0     0  7.946375893E+00  2.364353581E+01 -5.277616807E+01  5.837367207E+01  5.109990427E-04  0.00000E+00  9.000E+00
     -12     1     3     3     0     0 -2.431990919E+01 -2.913957923E+01  4.050548800E+00  3.817040747E+01  1.377370359E-06  0.00000E+00  9.000E+00
      -1     1     1     2     0   511  1.637353330E+01  5.496043418E+00 -2.051303063E+02  2.058561188E+02  2.697398305E-06  0.00000E+00  9.000E+00
</event>
<event>
      6    666  1.00000E+00  2.75642E+00 -1.00000E+00  3.08341E-01
       1    -1     0     0   501     0  0.000000000E+00  0.000000000E+00  5.809595621E+02  5.809595621E+02  0.000000000E+00  0.00000E+00  9.000E+00
      -2    -1     0     0     0   511  0.000000000E+00  0.000000000E+00 -2.837999002E+00  2.837999002E+00  0.000000000E+00  0.00000E+00  9.000E+00
     -24     2     1     2     0     0  1.440029962E+00 -2.350354529E+00  5.697270465E+02  5.749620780E+02  7.736204348E+01  0.00000E+00  9.000E+00
      11     1     3     3     0     0  9.202888977E+00  2.107128639E+01  5.075128398E+02  5.080334387E+02  5.111124946E-04  0.00000E+00  9.000E+00
     -12     1     3     3     0     0 -7.762859015E+00 -2.342164092E+01  6.221420673E+01  6.692863933E+01  3.932099939E-06  0.00000E+00  9.000E+00
      21     1     1     2   501   511 -1.440029962E+00  2.350354529E+00  8.394516561E+00  8.835483065E+00  1.192092896E-07  0.00000E+00  9.000E+00
</event>
<event>
      6    666  1.00000E+00  1.30049E+01 -1.00000E+00  1.83378E-01
       2    -1     0     0   501     0  0.000000000E+00  0.000000000E+00  5.614030576E+02  5.614030576E+02  0.000000000E+00  0.00000E+00  9.000E+00
      21    -1     0     0   511   501  0.000000000E+00  0.000000000E+00 -4.395510923E+00  4.395510923E+00  0.000000000E+00  0.00000E+00  9.000E+00
      24     2     1     2     0     0  1.018498894E+01  8.086540891E+00  5.193160349E+02  5.259265708E+02  8.210047268E+01  0.00000E+00  9.000E+00
     -11     1     3     3     0     0 -2.606538437E+01 -2.124016848E-01  4.022955024E+02  4.031390835E+02  5.109131583E-04  0.00000E+00  9.000E+00
      12     1     3     3     0     0  3.625037331E+01  8.298942576E+00  1.170205325E+02  1.227874873E+02  2.336015456E-06  0.00000E+00  9.000E+00
       1     1     1     2   511     0 -1.018498894E+01 -8.086540891E+00  3.769151175E+01  3.987199771E+01  4.768371582E-07  0.00000E+00  9.000E+00
</event>
<event>
      6    666  1.00000E+00  3.12375E+00 -1.00000E+00  2.91507E-01
       2    -1     0     0   511     0  0.000000000E+00  0.000000000E+00  9.927697843E+02  9.927697843E+02  0.000000000E+00  0.00000E+00  9.000E+00
      -1    -1     0     0     0   501  0.000000000E+00  0.000000000E+00 -1.735187933E+00  1.735187933E+00  0.000000000E+00  0.00000E+00  9.000E+00
      24     2     1     2     0     0 -8.115980316E-01  3.016472698E+00  9.467052011E+02  9.500656531E+02  7.977624734E+01  0.00000E+00  9.000E+00
     -11     1     3     3     0     0  2.568839280E+01  7.873885835E-01  1.109609356E+02  1.138983878E+02  5.110235148E-04  0.00000E+00  9.000E+00
      12     1     3     3     0     0 -2.649999083E+01  2.229084114E+00  8.357442655E+02  8.361672654E+02  1.868812365E-05  0.00000E+00  9.000E+00
      21     1     1     2   511   501  8.115980316E-01 -3.016472698E+00  4.432939519E+01  4.443931904E+01  6.743495762E-07  0.00000E+00  9.000E+00
</event>
<event>
      6    666  1.00000E+00  6.63792E+00 -1.00000E+00  2.18792E-01
       2    -1     0     0   501     0  0.000000000E+00  0.000000000E+00  8.957047325E+01  8.957047325E+01  0.000000000E+00  0.00000E+00  9.000E+00
      -1    -1     0     0     0   511  0.000000000E+00  0.000000000E+00 -3.737518003E+01  3.737518003E+01  0.000000000E+00  0.00000E+00  9.000E+00
      24     2     1     2     0     0  5.829797852E+00 -3.174191976E+00  7.016467915E+01  1.077894306E+02  8.155622050E+01  0.00000E+00  9.000E+00
     -11     1     3     3     0     0 -1.702100572E+01 -3.035851198E+01  7.261412608E+00  3.555393084E+01  5.109979372E-04  0.00000E+00  9.000E+00
      12     1     3     3     0     0  2.285080357E+01  2.718432000E+01  6.290326655E+01  7.223549972E+01  9.536743164E-07  0.00000E+00  9.000E+00
      21     1     1     2   501   511 -5.829797852E+00  3.174191976E+00 -1.796938594E+01  1.915622271E+01  0.000000000E+00  0.00000E+00  9.000E+00
</event>
<event>
      6    666  1.00000E+00  8.06582E+00 -1.00000E+00  2.07141E-01
      -3    -1     0     0     0   501  0.000000000E+00  0.000000000E+00  3.574306556E+01  3.574306556E+01  0.000000000E+00  0.00000E+00  9.000E+00
      21    -1     0     0   501   511  0.000000000E+00  0.000000000E+00 -1.598785155E+02  1.598785155E+02  0.000000000E+00  0.00000E+00  9.000E+00
      24     2     1     2     0     0 -7.351482882E+00  3.318602165E+00 -1.091552107E+01  8.211471027E+01  8.098530497E+01  0.00000E+00  9.000E+00
     -11     1     3     3     0     0  7.608408236E+00  9.615679361E+00  3.304865738E+01  3.525000596E+01  5.109988202E-04  0.00000E+00  9.000E+00
      12     1     3     3     0     0 -1.495989112E+01 -6.297077196E+00 -4.396417845E+01  4.686470431E+01  1.168007728E-06  0.00000E+00  9.000E+00
      -4     1     1     2     0   511  7.351482882E+00 -3.318602165E+00 -1.132199289E+02  1.135068708E+02  0.000000000E+00  0.00000E+00  9.000E+00
</event>
<event>
      6    666  1.00000E+00  2.83785E+01 -1.00000E+00  1.54699E-01
       2    -1     0     0   511     0  0.000000000E+00  0.000000000E+00  2.306611126E+02  2.306611126E+02  0.000000000E+00  0.00000E+00  9.000E+00
      -1    -1     0     0     0   501  0.000000000E+00  0.000000000E+00 -2.706549385E+01  2.706549385E+01  0.000000000E+00  0.00000E+00  9.000E+00
      24     2     1     2     0     0 -2.773562260E+01  6.006160837E+00  3.786566300E+01  8.958453270E+01  7.606734737E+01  0.00000E+00  9.000E+00
     -11     1     3     3     0     0  6.748410348E+00 -2.972324258E+01  7.532864971E+00  3.139675535E+01  5.109987924E-04  0.00000E+00  9.000E+00
      12     1     3     3     0     0 -3.448403295E+01  3.572940342E+01  3.033279803E+01  5.818777735E+01  7.539457465E-07  0.00000E+00  9.000E+00
      21     1     1     2   511   501  2.773562260E+01 -6.006160837E+00  1.657299558E+02  1.681420738E+02  0.000000000E+00  0.00000E+00  9.000E+00
</event>
<event>
      6    666  1.00000E+00  4.12832E+00 -1.00000E+00  2.60175E-01
      -2    -1     0     0     0   511  0.000000000E+00  0.000000000E+00  9.040453692E+00  9.040453692E+00  0.000000000E+00  0.00000E+00  9.000E+00
       1    -1     0     0   501     0  0.000000000E+00  0.000000000E+00 -2.110528015E+02  2.110528015E+02  0.000000000E+00  0.00000E+00  9.000E+00
     -24     2     1     2     0     0 -3.340202521E+00  2.426115164E+00 -2.005811094E+02  2.157238809E+02  7.929040535E+01  0.00000E+00  9.000E+00
      11     1     3     3     0     0 -2.445941586E+01 -2.271553106E+01 -1.603834697E+02  1.638203764E+02  5.109807990E-04  0.00000E+00  9.000E+00
     -12     1     3     3     0     0  2.111921334E+01  2.514164622E+01 -4.019763971E+01  5.190350455E+01  1.430511475E-06  0.00000E+00  9.000E+00
      21     1     1     2   501   511  3.340202521E+00 -2.426115164E+00 -1.431238386E+00  4.369374210E+00  1.381876841E-07  0.00000E+00  9.000E+00
</event>
<event>
      6    666  1.00000E+00  1.64191E+01 -1.00000E+00  1.73718E-01
      -3    -1     0     0     0   501  0.000000000E+00  0.000000000E+00  3.248062679E+01  3.248062679E+01  0.000000000E+00  0.00000E+00  9.000E+00
       4    -1     0     0   511     0  0.000000000E+00  0.000000000E+00 -7.996095690E+01  7.996095690E+01  0.000000000E+00  0.00000E+00  9.000E+00
      24     2     1     2     0     0  8.991986711E+00  1.373791599E+01 -2.688725505E+01  8.610414074E+01  8.013371579E+01  0.00000E+00  9.000E+00
     -11     1     3     3     0     0  1.871797485E+01 -2.558502186E+01 -3.227478931E+01  4.523956179E+01  5.109968179E-04  0.00000E+00  9.000E+00
      12     1     3     3     0     0 -9.725988134E+00  3.932293785E+01  5.387534262E+00  4.086457894E+01  1.205429340E-06  0.00000E+00  9.000E+00
      21     1     1     2   511   501 -8.991986711E+00 -1.373791599E+01 -2.059307506E+01  2.633744295E+01  0.000000000E+00  0.00000E+00  9.000E+00
</event>
<event>
      6    666  1.00000E+00  3.44978E+01 -1.00000E+00  1.48909E-01
      21    -1     0     0   501   511  0.000000000E+00  0.000000000E+00  1.867117084E+01  1.867117084E+01  0.000000000E+00  0.00000E+00  9.000E+00
      -1    -1     0     0     0   501  0.000000000E+00  0.000000000E+00 -1.972365165E+02  1.972365165E+02  0.000000000E+00  0.00000E+00  9.000E+00
      24     2     1     2     0     0  1.004814071E+01  3.300197758E+01 -1.391326003E+02  1.635145860E+02  7.867047560E+01  0.00000E+00  9.000E+00
     -11     1     3     3     0     0  1.596715195E+01 -2.331875342E+01 -5.865771745E+01  6.511099768E+01  5.110003775E-04  0.00000E+00  9.000E+00
      12     1     3     3     0     0 -5.919011237E+00  5.632073100E+01 -8.047488282E+01  9.840358835E+01  2.336015456E-06  0.00000E+00  9.000E+00
      -2     1     1     2     0   511 -1.004814071E+01 -3.300197758E+01 -3.943274537E+01  5.239310129E+01  4.768371582E-07  0.00000E+00  9.000E+00
</event>
<event>
      6    666  1.00000E+00  5.05693E+01 -1.00000E+00  1.38767E-01
      21    -1     0     0   511   501  0.000000000E+00  0.000000000E+00  1.939438710E+01  1.939438710E+01  0.000000000E+00  0.00000E+00  9.000E+00
       2    -1     0     0   501     0  0.000000000E+00  0.000000000E+00 -3.277978510E+02  3.277978510E+02  0.000000000E+00  0.00000E+00  9.000E+00
      24     2     1     2     0     0  1.978744308E+01  4.653715812E+01 -1.265408840E+02  1.584298267E+02  8.080943430E+01  0.00000E+00  9.000E+00
     -11     1     3     3     0     0  3.202747010E+01  6.519729451E+01 -1.024812316E+02  1.256138881E+02  5.110003775E-04  0.00000E+00  9.000E+00
      12     1     3     3     0     0 -1.224002702E+01 -1.866013639E+01 -2.405965234E+01  3.281593854E+01  8.920806376E-07  0.00000E+00  9.000E+00
       1     1     1     2   511     0 -1.978744308E+01 -4.653715812E+01 -1.818625799E+02  1.887624114E+02  2.697398305E-06  0.00000E+00  9.000E+00
</event>
<event>
      6    666  1.00000E+00  1.42031E+01 -1.00000E+00  1.79598E-01
       1    -1     0     0   501     0  0.000000000E+00  0.000000000E+00  6.115099708E+02  6.115099708E+02  0.000000000E+00  0.00000E+00  9.000E+00
      -2    -1     0     0     0   511  0.000000000E+00  0.000000000E+00 -3.687871971E+00  3.687871971E+00  0.000000000E+00  0.00000E+00  9.000E+00
     -24     2     1     2     0     0 -4.753326548E+00 -1.338409080E+01  5.217342736E+02  5.279462430E+02  7.949122788E+01  0.00000E+00  9.000E+00
      11     1     3     3     0     0 -1.880440719E+01  2.846510219E+01  2.940027938E+02  2.959755236E+02  5.110128362E-04  0.00000E+00  9.000E+00
     -12     1     3     3     0     0  1.405108064E+01 -4.184919299E+01  2.277314797E+02  2.319707195E+02  6.607249480E-06  0.00000E+00  9.000E+00
      21     1     1     2   501   511  4.753326548E+00  1.338409080E+01  8.608782531E+01  8.725159979E+01  0.000000000E+00  0.00000E+00  9.000E+00
</event>
<event>
      6    666  1.00000E+00  6.57583E+01 -1.00000E+00  1.32584E-01
       1    -1     0     0   501     0  0.000000000E+00  0.000000000E+00  2.446832209E+02  2.446832209E+02  0.000000000E+00  0.00000E+00  9.000E+00
      21    -1     0     0   511   501  0.000000000E+00  0.000000000E+00 -3.101729102E+01  3.101729102E+01  0.000000000E+00  0.00000E+00  9.000E+00
     -24     2     1     2     0     0 -2.627816388E+01  6.027940346E+01  9.661311325E+01  1.414413958E+02  7.967073753E+01  0.00000E+00  9.000E+00
      11     1     3     3     0     0  5.643577342E+00  6.001114144E+01  9.081241136E+01  1.089957849E+02  5.109968179E-04  0.00000E+00  9.000E+00
     -12     1     3     3     0     0 -3.192174122E+01  2.682620219E-01  5.800701893E+00  3.244561094E+01  2.920019320E-07  0.00000E+00  9.000E+00
       2     1     1     2   511     0  2.627816388E+01 -6.027940346E+01  1.170528166E+02  1.342591161E+02  0.000000000E+00  0.00000E+00  9.000E+00
</event>
<event>
      6    666  1.00000E+00  5.11768E+00 -1.00000E+00  2.36678E-01
      21    -1     0     0   501   511  0.000000000E+00  0.000000000E+00  3.831235993E+01  3.831235993E+01  0.000000000E+00  0.00000E+00  9.000E+00
      -2    -1     0     0     0   501  0.000000000E+00  0.000000000E+00 -1.325658643E+03  1.325658643E+03  0.000000000E+00  0.00000E+00  9.000E+00
     -24     2     1     2     0     0  4.648867328E+00 -2.139778174E+00 -1.324259071E+03  1.326705139E+03  8.036322547E+01  0.00000E+00  9.000E+00
      11     1     3     3     0     0 -1.284098835E+01  1.220861973E+01 -6.888468544E+01  7.112693770E+01  5.110341932E-04  0.00000E+00  9.000E+00
     -12     1     3     3     0     0  1.748985568E+01 -1.434839791E+01 -1.255374386E+03  1.255578202E+03  2.642899792E-05  0.00000E+00  9.000E+00
      -3     1     1     2     0   511 -4.648867328E+00  2.139778174E+00  3.691278851E+01  3.726586338E+01  2.185142372E-06  0.00000E+00  9.000E+00
</event>
<event>
      6    666  1.00000E+00  3.41492E+01 -1.00000E+00  1.49199E-01
       2    -1     0     0   511     0  0.000000000E+00  0.000000000E+00  3.625229249E+02  3.625229249E+02  0.000000000E+00  0.00000E+00  9.000E+00
      -1    -1     0     0     0   501  0.000000000E+00  0.000000000E+00 -1.152857197E+01  1.152857197E+01  0.000000000E+00  0.00000E+00  9.000E+00
      24     2     1     2     0     0 -4.275918783E+00 -3.388041923E+01  1.893520331E+02  2.088413100E+02  8.120550494E+01  0.00000E+00  9.000E+00
     -11     1     3     3     0     0  2.383422527E+01 -1.420966050E+01  1.580214350E+01  3.193262415E+01  5.109974019E-04  0.00000E+00  9.000E+00
      12     1     3     3     0     0 -2.811014405E+01 -1.967075873E+01  1.735498896E+02  1.769086858E+02  4.264961200E-06  0.00000E+00  9.000E+00
      21     1     1     2   511   501  4.275918783E+00  3.388041923E+01  1.616423198E+02  1.652101869E+02  1.907348633E-06  0.00000E+00  9.000E+00
</event>
<event>
      6    666  1.00000E+00  4.41457E+00 -1.00000E+00  2.53671E-01
      21    -1     0     0   501   511  0.000000000E+00  0.000000000E+00  2.340718518E+01  2.340718518E+01  0.000000000E+00  0.00000E+00  9.000E+00
      -3    -1     0     0     0   501  0.000000000E+00  0.000000000E+00 -8.513736189E+02  8.513736189E+02  0.000000000E+00  0.00000E+00  9.000E+00
      24     2     1     2     0     0  2.441665138E+00 -3.677861202E+00 -8.492330835E+02  8.530607952E+02  8.060025990E+01  0.00000E+00  9.000E+00
     -11     1     3     3     0     0 -3.087906518E+01 -2.555808850E+01 -4.847161745E+02  4.863707458E+02  5.109416397E-04  0.00000E+00  9.000E+00
      12     1     3     3     0     0  3.332073032E+01  2.188022730E+01 -3.645169090E+02  3.666900495E+02  0.000000000E+00  0.00000E+00  9.000E+00
      -4     1     1     2     0   511 -2.441665138E+00  3.677861202E+00  2.126664977E+01  2.172000884E+01  2.008950656E-06  0.00000E+00  9.000E+00
</event>
<event>
      6    666  1.00000E+00  4.71945E+00 -1.00000E+00  2.47523E-01
      -2    -1     0     0     0   511  0.000000000E+00  0.000000000E+00  1.961924086E+00  1.961924086E+00  0.000000000E+00  0.00000E+00  9.000E+00
       1    -1     0     0   501     0  0.000000000E+00  0.000000000E+00 -1.117346194E+03  1.117346194E+03  0.000000000E+00  0.00000E+00  9.000E+00
     -24     2     1     2     0     0  4.677241018E+00 -6.297832520E-01 -1.104455769E+03  1.107404113E+03  8.061668605E+01  0.00000E+00  9.000E+00
      11     1     3     3     0     0  3.603455239E+01  1.496399183E+01 -7.980938604E+02  7.990470700E+02  5.107707276E-04  0.00000E+00  9.000E+00
     -12     1     3     3     0     0 -3.135731137E+01 -1.559377508E+01 -3.063619086E+02  3.083570428E+02  3.814697266E-06  0.00000E+00  9.000E+00
      21     1     1     2   501   511 -4.677241018E+00  6.297832520E-01 -1.092850087E+01  1.190400528E+01  6.637292341E-07  0.00000E+00  9.000E+00
</event>
<event>
      6    666  1.00000E+00  1.96889E+01 -1.00000E+00  1.66891E-01
      21    -1     0     0   511   501  0.000000000E+00  0.000000000E+00  1.384224231E+02  1.384224231E+02  0.000000000E+00  0.00000E+00  9.000E+00
       4    -1     0     0   501     0  0.000000000E+00  0.000000000E+00 -4.015255576E+01  4.015255576E+01  0.000000000E+00  0.00000E+00  9.000E+00
      24     2     1     2     0     0  1.853239066E+01  6.648642451E+00  6.180191996E+00  8.440405843E+01  8.184250947E+01  0.00000E+00  9.000E+00
     -11     1     3     3     0     0  5.736050682E+00 -1.512669533E+01  3.944714706E+01  4.263562595E+01  5.109983752E-04  0.00000E+00  9.000E+00
      12     1     3     3     0     0  1.279633998E+01  2.177533778E+01 -3.326695506E+01  4.176843248E+01  9.536743164E-07  0.00000E+00  9.000E+00
       3     1     1     2   511     0 -1.853239066E+01 -6.648642451E+00  9.208967534E+01  9.417092043E+01  1.907348633E-06  0.00000E+00  9.000E+00
</event>
<event>
      6    666  1.00000E+00  1.28592E+01 -1.00000E+00  1.83873E-01
       1    -1     0     0   501     0  0.000000000E+00  0.000000000E+00  3.294989404E+02  3.294989404E+02  0.000000000E+00  0.00000E+00  9.000E+00
      -2    -1     0     0     0   511  0.000000000E+00  0.000000000E+00 -6.606105154E+01  6.606105154E+01  0.000000000E+00  0.00000E+00  9.000E+00
     -24     2     1     2     0     0  8.624274391E+00  9.538454664E+00  3.234617097E+02  3.341741686E+02  8.294297518E+01  0.00000E+00  9.000E+00
      11     1     3     3     0     0 -5.377325503E+00 -2.025986009E+01  2.737316613E+02  2.745330580E+02  5.109843588E-04  0.00000E+00  9.000E+00
     -12     1     3     3     0     0  1.400159989E+01  2.979831476E+01  4.973004841E+01  5.964111063E+01  1.651812370E-06  0.00000E+00  9.000E+00
      21     1     1     2   501   511 -8.624274391E+00 -9.538454664E+00 -6.002382086E+01  6.138582325E+01  1.507891493E-06  0.00000E+00  9.000E+00
</event>
<event>
      6    666  1.00000E+00  8.69197E+00 -1.00000E+00  2.03006E-01
       2    -1     0     0   501     0  0.000000000E+00  0.000000000E+00  3.560934561E+02  3.560934561E+02  0.000000000E+00  0.00000E+00  9.000E+00
      -1    -1     0     0     0   511  0.000000000E+00  0.000000000E+00 -6.180429875E+00  6.180429875E+00  0.000000000E+00  0.00000E+00  9.000E+00
      24     2     1     2     0     0  8.312280921E-01  8.652136119E+00  3.390637446E+02  3.483721843E+02  7.951984310E+01  0.00000E+00  9.000E+00
     -11     1     3     3     0     0  2.247339165E+01 -1.235761914E+01  3.826478958E+01  4.606471757E+01  5.109885860E-04  0.00000E+00  9.000E+00
      12     1     3     3     0     0 -2.164216356E+01  2.100975525E+01  3.007989550E+02  3.023074667E+02  5.394796609E-06  0.00000E+00  9.000E+00
      21     1     1     2   501   511 -8.312280921E-01 -8.652136119E+00  1.084928163E+01  1.390170175E+01  4.460403188E-07  0.00000E+00  9.000E+00
</event>
<event>
      6    666  1.00000E+00  1.78992E+01 -1.00000E+00  1.70403E-01
      -3    -1     0     0     0   501  0.000000000E+00  0.000000000E+00  2.114253167E+02  2.114253167E+02  0.000000000E+00  0.00000E+00  9.000E+00
      21    -1     0     0   501   511  0.000000000E+00  0.000000000E+00 -3.671699208E+01  3.671699208E+01  0.000000000E+00  0.00000E+00  9.000E+00
      24     2     1     2     0     0 -1.588233242E+01  8.254169662E+00  1.994405536E+02  2.176126028E+02  8.519583721E+01  0.00000E+00  9.000E+00
     -11     1     3     3     0     0  1.304776214E+01  8.171274214E+00  1.843339230E+02  1.849756984E+02  5.109985977E-04  0.00000E+00  9.000E+00
      12     1     3     3     0     0 -2.893009456E+01  8.289544849E-02  1.510663060E+01  3.263690443E+01  1.305872339E-06  0.00000E+00  9.000E+00
      -4     1     1     2     0   511  1.588233242E+01 -8.254169662E+00 -2.473222894E+01  3.052970600E+01  3.371747881E-07  0.00000E+00  9.000E+00
</event>
<event>
      6    666  1.00000E+00  5.51235E+00 -1.00000E+00  2.31263E-01
      21    -1     0     0   511   501  0.000000000E+00  0.000000000E+00  1.348553683E+02  1.348553683E+02  0.000000000E+00  0.00000E+00  9.000E+00
       2    -1     0     0   501     0  0.000000000E+00  0.000000000E+00 -1.586187338E+01  1.586187338E+01  0.000000000E+00  0.00000E+00  9.000E+00
      24     2     1     2     0     0 -4.532506284E+00  3.137249782E+00  9.136366316E+01  1.225428996E+02  8.148041080E+01  0.00000E+00  9.000E+00
     -11     1     3     3     0     0 -3.802355134E+01 -4.292153514E+00  7.571944892E+01  8.483895322E+01  5.109968179E-04  0.00000E+00  9.000E+00
      12     1     3     3     0     0  3.349104506E+01  7.429403296E+00  1.564421424E+01  3.770394637E+01  1.118282261E-06  0.00000E+00  9.000E+00
       1     1     1     2   511     0  4.532506284E+00 -3.137249782E+00  2.762983181E+01  2.817434214E+01  3.371747881E-07  0.00000E+00  9.000E+00
</event>
<event>
      6    666  1.00000E+00  2.10317E+00 -1.00000E+00  3.52974E-01
      -1    -1     0     0     0   501  0.000000000E+00  0.000000000E+00  9.438431098E+00  9.438431098E+00  0.000000000E+00  0.00000E+00  9.000E+00
       2    -1     0     0   511     0  0.000000000E+00  0.000000000E+00 -1.809081714E+02  1.809081714E+02  0.000000000E+00  0.00000E+00  9.000E+00
      24     2     1     2     0     0  2.082607163E+00 -2.933930901E-01 -1.645085365E+02  1.830746226E+02  8.030464217E+01  0.00000E+00  9.000E+00
     -11     1     3     3     0     0 -2.492885744E+01 -1.178843829E+00 -1.111760422E+01  2.732103091E+01  5.109999465E-04  0.00000E+00  9.000E+00
      12     1     3     3     0     0  2.701146460E+01  8.854507388E-01 -1.533909322E+02  1.557535917E+02  4.264961200E-06  0.00000E+00  9.000E+00
      21     1     1     2   511   501 -2.082607163E+00  2.933930901E-01 -6.961203815E+00  7.271979830E+00  8.429369702E-08  0.00000E+00  9.000E+00
</event>
<event>
      6    666  1.00000E+00  1.78933E+01 -1.00000E+00  1.70415E-01
       2    -1     0     0   501     0  0.000000000E+00  0.000000000E+00  5.775253708E+02  5.775253708E+02  0.000000000E+00  0.00000E+00  9.000E+00
      21    -1     0     0   511   501  0.000000000E+00  0.000000000E+00 -4.450626103E+00  4.450626103E+00  0.000000000E+00  0.00000E+00  9.000E+00
      24     2     1     2     0     0 -7.931170592E+00  1.603957970E+01  4.355172132E+02  4.432595737E+02  8.052102293E+01  0.00000E+00  9.000E+00
     -11     1     3     3     0     0 -3.427594390E+01  2.489019302E+01  3.652153602E+02  3.676637341E+02  5.109701195E-04  0.00000E+00  9.000E+00
      12     1     3     3     0     0  2.634477331E+01 -8.850613323E+00  7.030185300E+01  7.559583965E+01  2.861022949E-06  0.00000E+00  9.000E+00
       1     1     1     2   511     0  7.931170592E+00 -1.603957970E+01  1.375575315E+02  1.387164232E+02  3.814697266E-06  0.00000E+00  9.000E+00
</event>
<event>
      6    666  1.00000E+00  6.55022E+00 -1.00000E+00  2.19638E-01
       1    -1     0     0   501     0  0.000000000E+00  0.000000000E+00  6.572450470E+02  6.572450470E+02  0.000000000E+00  0.00000E+00  9.000E+00
      21    -1     0     0   511   501  0.000000000E+00  0.000000000E+00 -3.145218932E+00  3.145218932E+00  0.000000000E+00  0.00000E+00  9.000E+00
     -24     2     1     2     0     0 -4.829184152E+00 -4.425426737E+00  6.391515104E+02  6.440697996E+02  7.917289967E+01  0.00000E+00  9.000E+00
      11     1     3     3     0     0 -1.195223533E+01 -2.833056843E+01  5.649840761E+02  5.658201863E+02  5.111694336E-04  0.00000E+00  9.000E+00
     -12     1     3     3     0     0  7.123051177E+00  2.390514169E+01  7.416743433E+01  7.824961325E+01  5.478441855E-06  0.00000E+00  9.000E+00
       2     1     1     2   511     0  4.829184152E+00  4.425426737E+00  1.494831767E+01  1.632046637E+01  3.371747881E-07  0.00000E+00  9.000E+00
</event>
<event>
      6    666  1.00000E+00  6.69943E+00 -1.00000E+00  2.18210E-01
      -2    -1     0     0     0   501  0.000000000E+00  0.000000000E+00  3.170987069E+00  3.170987069E+00  0.000000000E+00  0.00000E+00  9.000E+00
       1    -1     0     0   511     0  0.000000000E+00  0.000000000E+00 -8.080931360E+02  8.080931360E+02  0.000000000E+00  0.00000E+00  9.000E+00
     -24     2     1     2     0     0 -6.670330558E+00 -6.237573798E-01 -5.322579863E+02  5.385176695E+02  8.159555097E+01  0.00000E+00  9.000E+00
      11     1     3     3     0     0  2.488074654E+01 -2.242294499E+01 -3.811681566E+02  3.826369083E+02  5.109985977E-04  0.00000E+00  9.000E+00
     -12     1     3     3     0     0 -3.155107710E+01  2.179918761E+01 -1.510898298E+02  1.558807612E+02  5.046370146E-06  0.00000E+00  9.000E+00
      21     1     1     2   511   501  6.670330558E+00  6.237573798E-01 -2.726641626E+02  2.727464536E+02  3.814697266E-06  0.00000E+00  9.000E+00
</event>
<event>
      6    666  1.00000E+00  5.46142E+00 -1.00000E+00  2.31925E-01
      21    -1     0     0   511   501  0.000000000E+00  0.000000000E+00  1.382810379E+02  1.382810379E+02  0.000000000E+00  0.00000E+00  9.000E+00
       2    -1     0     0   501     0  0.000000000E+00  0.000000000E+00 -1.508793991E+01  1.508793991E+01  0.000000000E+00  0.00000E+00  9.000E+00
      24     2     1     2     0     0  3.873470417E+00  3.850101475E+00  9.696167927E+01  1.265750535E+02  8.117789019E+01  0.00000E+00  9.000E+00
     -11     1     3     3     0     0  8.618375176E+00 -8.624800798E+00  1.083476015E+02  1.090314924E+02  5.110021574E-04  0.00000E+00  9.000E+00
      12     1     3     3     0     0 -4.744904759E+00  1.247490227E+01 -1.138592227E+01  1.754356104E+01  7.348554138E-07  0.00000E+00  9.000E+00
       1     1     1     2   511     0 -3.873470417E+00 -3.850101475E+00  2.623141872E+01  2.679392435E+01  0.000000000E+00  0.00000E+00  9.000E+00
</event>
<event>
      6    666  1.00000E+00  3.10026E+01 -1.00000E+00  1.52020E-01
       1    -1     0     0   501     0  0.000000000E+00  0.000000000E+00  1.109502912E+02  1.109502912E+02  0.000000000E+00  0.00000E+00  9.000E+00
      -2    -1     0     0     0   511  0.000000000E+00  0.000000000E+00 -3.387008353E+01  3.387008353E+01  0.000000000E+00  0.00000E+00  9.000E+00
     -24     2     1     2     0     0 -2.984394852E+01  8.396252125E+00  7.361494012E+01  1.136247598E+02  8.081007557E+01  0.00000E+00  9.000E+00
      11     1     3     3     0     0  4.755525922E+00 -7.687096349E+00  7.490462001E+01  7.544805217E+01  5.110030473E-04  0.00000E+00  9.000E+00
     -12     1     3     3     0     0 -3.459947444E+01  1.608334847E+01 -1.289679892E+00  3.817670761E+01  2.004746206E-07  0.00000E+00  9.000E+00
      21     1     1     2   501   511  2.984394852E+01 -8.396252125E+00  3.465267562E+00  3.119561495E+01  5.092623082E-07  0.00000E+00  9.000E+00
</event>
<event>
      6    666  1.00000E+00  1.44953E+00 -1.00000E+00  4.56305E-01
      -1    -1     0     0     0   511  0.000000000E+00  0.000000000E+00  1.005833261E+02  1.005833261E+02  0.000000000E+00  0.00000E+00  9.000E+00
       2    -1     0     0   501     0  0.000000000E+00  0.000000000E+00 -1.423908738E+01  1.423908738E+01  0.000000000E+00  0.00000E+00  9.000E+00
      24     2     1     2     0     0  1.443079697E+00  1.366375787E-01  8.169704756E+01  1.099544021E+02  7.357623135E+01  0.00000E+00  9.000E+00
     -11     1     3     3     0     0  1.649009965E+01  1.587326756E+01  8.491448196E+01  8.794517187E+01  5.109994876E-04  0.00000E+00  9.000E+00
      12     1     3     3     0     0 -1.504701995E+01 -1.573662998E+01 -3.217434396E+00  2.200923026E+01  4.359703910E-07  0.00000E+00  9.000E+00
      21     1     1     2   501   511 -1.443079697E+00 -1.366375787E-01  4.647191136E+00  4.868011328E+00  5.960464478E-08  0.00000E+00  9.000E+00
</event>
<event>
      6    666  1.00000E+00  3.70443E+01 -1.00000E+00  1.46906E-01
       4    -1     0     0   501     0  0.000000000E+00  0.000000000E+00  4.921035076E+00  4.921035076E+00  0.000000000E+00  0.00000E+00  9.000E+00
      -3    -1     0     0     0   511  0.000000000E+00  0.000000000E+00 -8.069283703E+02  8.069283703E+02  0.000000000E+00  0.00000E+00  9.000E+00
      24     2     1     2     0     0 -2.021946453E+01 -3.103956328E+01 -5.064739459E+02  5.140033622E+02  7.944379923E+01  0.00000E+00  9.000E+00
     -11     1     3     3     0     0 -4.046796773E+01 -6.072983459E+00 -4.156320183E+02  4.176416073E+02  5.109131583E-04  0.00000E+00  9.000E+00
      12     1     3     3     0     0  2.024850320E+01 -2.496657982E+01 -9.084192766E+01  9.636175491E+01  3.303624740E-06  0.00000E+00  9.000E+00
      21     1     1     2   501   511  2.021946453E+01  3.103956328E+01 -2.955333893E+02  2.978460432E+02  3.814697266E-06  0.00000E+00  9.000E+00
</event>
<event>
      6    666  1.00000E+00  1.10538E+01 -1.00000E+00  1.90803E-01
      -1    -1     0     0     0   511  0.000000000E+00  0.000000000E+00  5.396887311E+01  5.396887311E+01  0.000000000E+00  0.00000E+00  9.000E+00
       2    -1     0     0   501     0  0.000000000E+00  0.000000000E+00 -4.159497698E+01  4.159497698E+01  0.000000000E+00  0.00000E+00  9.000E+00
      24     2     1     2     0     0 -7.051250536E+00 -8.512765513E+00  3.040016698E+00  8.109634803E+01  8.028193228E+01  0.00000E+00  9.000E+00
     -11     1     3     3     0     0 -2.248868665E+01  3.105274589E+01 -1.593281120E+00  3.837385307E+01  5.109985330E-04  0.00000E+00  9.000E+00
      12     1     3     3     0     0  1.543743611E+01 -3.956551141E+01  4.633297818E+00  4.272249496E+01  8.429369702E-07  0.00000E+00  9.000E+00
      21     1     1     2   501   511  7.051250536E+00  8.512765513E+00  9.333879432E+00  1.446750207E+01  0.000000000E+00  0.00000E+00  9.000E+00
</event>
<event>
      6    666  1.00000E+00  4.53589E+00 -1.00000E+00  2.51137E-01
      -2    -1     0     0     0   511  0.000000000E+00  0.000000000E+00  2.290544724E+00  2.290544724E+00  0.000000000E+00  0.00000E+00  9.000E+00
       1    -1     0     0   501     0  0.000000000E+00  0.000000000E+00 -1.432446227E+03  1.432446227E+03  0.000000000E+00  0.00000E+00  9.000E+00
     -24     2     1     2     0     0 -1.104558147E+00  4.399350558E+00 -1.426789343E+03  1.429088181E+03  8.089886482E+01  0.00000E+00  9.000E+00
      11     1     3     3     0     0  2.166946445E-01 -3.682790568E+01 -4.851606122E+02  4.865564317E+02  5.109985977E-04  0.00000E+00  9.000E+00
     -12     1     3     3     0     0 -1.321252791E+00  4.122725623E+01 -9.416287308E+02  9.425317496E+02  1.868812365E-05  0.00000E+00  9.000E+00
      21     1     1     2   501   511  1.104558147E+00 -4.399350558E+00 -3.366339383E+00  5.648590521E+00  1.685873940E-07  0.00000E+00  9.000E+00
</event>
<event>
      6    666  1.00000E+00  1.36165E+01 -1.00000E+00  1.81387E-01
      -1    -1     0     0     0   511  0.000000000E+00  0.000000000E+00  3.920635215E+02  3.920635215E+02  0.000000000E+00  0.00000E+00  9.000E+00
       2    -1     0     0   501     0  0.000000000E+00  0.000000000E+00 -1.496727113E+01  1.496727113E+01  0.000000000E+00  0.00000E+00  9.000E+00
      24     2     1     2     0     0  4.686241436E+00 -1.278463369E+01  1.011388662E+02  1.307376773E+02  8.171818821E+01  0.00000E+00  9.000E+00
     -11     1     3     3     0     0 -1.362325106E+01 -3.065831656E+01  9.960649248E+01  1.051046083E+02  5.109985977E-04  0.00000E+00  9.000E+00
      12     1     3     3     0     0  1.830949250E+01  1.787368288E+01  1.532373721E+00  2.563306896E+01  9.083599242E-07  0.00000E+00  9.000E+00
      21     1     1     2   501   511 -4.686241436E+00  1.278463369E+01  2.759573841E+02  2.762931153E+02  3.814697266E-06  0.00000E+00  9.000E+00
</event>
<event>
      6    666  1.00000E+00  6.64065E+01 -1.00000E+00  1.32364E-01
       1    -1     0     0   501     0  0.000000000E+00  0.000000000E+00  1.987439706E+02  1.987439706E+02  0.000000000E+00  0.00000E+00  9.000E+00
      -2    -1     0     0     0   511  0.000000000E+00  0.000000000E+00 -4.467704432E+01  4.467704432E+01  0.000000000E+00  0.00000E+00  9.000E+00
     -24     2     1     2     0     0 -6.628187490E+01  4.066537345E+00  1.398746145E+02  1.755148637E+02  8.264826630E+01  0.00000E+00  9.000E+00
      11     1     3     3     0     0 -5.467386597E+01 -3.468836552E+01  9.641637155E+01  1.161405658E+02  5.109985977E-04  0.00000E+00  9.000E+00
     -12     1     3     3     0     0 -1.160800893E+01  3.875490286E+01  4.345824297E+01  5.937429788E+01  1.581489940E-06  0.00000E+00  9.000E+00
      21     1     1     2   501   511  6.628187490E+01 -4.066537345E+00  1.419231180E+01  6.790615127E+01  0.000000000E+00  0.00000E+00  9.000E+00
</event>
<event>
      6    666  1.00000E+00  3.54861E+01 -1.00000E+00  1.48108E-01
       1    -1     0     0   511     0  0.000000000E+00  0.000000000E+00  1.492590494E+03  1.492590494E+03  0.000000000E+00  0.00000E+00  9.000E+00
      -2    -1     0     0     0   501  0.000000000E+00  0.000000000E+00 -2.625195728E+00  2.625195728E+00  0.000000000E+00  0.00000E+00  9.000E+00
     -24     2     1     2     0     0 -3.608892106E+00 -3.530207589E+01  9.639709964E+02  9.680257180E+02  8.108297103E+01  0.00000E+00  9.000E+00
      11     1     3     3     0     0  1.536091491E+00  2.204110072E+01  5.012503410E+02  5.017370567E+02  5.110270743E-04  0.00000E+00  9.000E+00
     -12     1     3     3     0     0 -5.144983597E+00 -5.734317660E+01  4.627206554E+02  4.662886613E+02  5.394796609E-06  0.00000E+00  9.000E+00
      21     1     1     2   511   501  3.608892106E+00  3.530207589E+01  5.259943021E+02  5.271899719E+02  0.000000000E+00  0.00000E+00  9.000E+00
</event>
<event>
      6    666  1.00000E+00  4.25295E+00 -1.00000E+00  2.57246E-01
       2    -1     0     0   501     0  0.000000000E+00  0.000000000E+00  2.575212553E+01  2.575212553E+01  0.000000000E+00  0.00000E+00  9.000E+00
      -1    -1     0     0     0   511  0.000000000E+00  0.000000000E+00 -7.073124877E+01  7.073124877E+01  0.000000000E+00  0.00000E+00  9.000E+00
      24     2     1     2     0     0  4.190699954E+00  7.249910975E-01 -3.870812097E+01  8.890623450E+01  7.992441633E+01  0.00000E+00  9.000E+00
     -11     1     3     3     0     0  4.136416809E+01 -3.544489113E+00 -2.767917974E+01  4.989684154E+01  5.109992651E-04  0.00000E+00  9.000E+00
      12     1     3     3     0     0 -3.717346813E+01  4.269480211E+00 -1.102894123E+01  3.900939296E+01  8.760057960E-07  0.00000E+00  9.000E+00
      21     1     1     2   501   511 -4.190699954E+00 -7.249910975E-01 -6.271002267E+00  7.577139805E+00  1.460009660E-07  0.00000E+00  9.000E+00
</event>
<event>
      6    666  1.00000E+00  7.50461E+00 -1.00000E+00  2.11299E-01
       1    -1     0     0   511     0  0.000000000E+00  0.000000000E+00  3.237025358E+02  3.237025358E+02  0.000000000E+00  0.00000E+00  9.000E+00
      -2    -1     0     0     0   501  0.000000000E+00  0.000000000E+00 -8.615521487E+00  8.615521487E+00  0.000000000E+00  0.00000E+00  9.000E+00
     -24     2     1     2     0     0  3.878307360E+00 -6.424786741E+00  1.815954983E+02  1.986157611E+02  8.009354787E+01  0.00000E+00  9.000E+00
      11     1     3     3     0     0 -7.249345773E+00 -1.251097811E+01  1.849356078E+02  1.855000179E+02  5.109914783E-04  0.00000E+00  9.000E+00
     -12     1     3     3     0     0  1.112765313E+01  6.086191370E+00 -3.340109519E+00  1.311574326E+01  4.042583694E-07  0.00000E+00  9.000E+00
      21     1     1     2   511   501 -3.878307360E+00  6.424786741E+00  1.334915160E+02  1.337022961E+02  0.000000000E+00  0.00000E+00  9.000E+00
</event>
<event>
      6    666  1.00000E+00  4.00846E+00 -1.00000E+00  2.63146E-01
      -1    -1     0     0     0   501  0.000000000E+00  0.000000000E+00  8.839006777E+02  8.839006777E+02  0.000000000E+00  0.00000E+00  9.000E+00
      21    -1     0     0   501   511  0.000000000E+00  0.000000000E+00 -2.159201608E+01  2.159201608E+01  0.000000000E+00  0.00000E+00  9.000E+00
      24     2     1     2     0     0 -3.753356101E+00  1.407155072E+00  8.819746723E+02  8.854223239E+02  7.795704752E+01  0.00000E+00  9.000E+00
     -11     1     3     3     0     0 -3.782102294E+01 -5.784673742E+00  6.146476112E+02  6.158372985E+02  5.111694336E-04  0.00000E+00  9.000E+00
      12     1     3     3     0     0  3.406766684E+01  7.191828814E+00  2.673270612E+02  2.695850255E+02  8.529922400E-06  0.00000E+00  9.000E+00
      -2     1     1     2     0   511  3.753356101E+00 -1.407155072E+00 -1.966601074E+01  2.007036985E+01  9.233911863E-07  0.00000E+00  9.000E+00
</event>
<event>
      6    666  1.00000E+00  8.61225E+00 -1.00000E+00  2.03506E-01
       2    -1     0     0   511     0  0.000000000E+00  0.000000000E+00  2.282006214E+01  2.282006214E+01  0.000000000E+00  0.00000E+00  9.000E+00
      -1    -1     0     0     0   501  0.000000000E+00  0.000000000E+00 -1.109136760E+02  1.109136760E+02  0.000000000E+00  0.00000E+00  9.000E+00
      24     2     1     2     0     0  8.305252249E+00 -2.278962256E+00 -9.514582545E+01  1.226024950E+02  7.684056745E+01  0.00000E+00  9.000E+00
     -11     1     3     3     0     0  3.344383869E+01 -7.510210376E+00 -9.014656526E+01  9.644323115E+01  5.110003775E-04  0.00000E+00  9.000E+00
      12     1     3     3     0     0 -2.513858644E+01  5.231248120E+00 -4.999260189E+00  2.615926389E+01  8.429369702E-08  0.00000E+00  9.000E+00
      21     1     1     2   511   501 -8.305252249E+00  2.278962256E+00  7.052211607E+00  1.113124308E+01  2.795705652E-07  0.00000E+00  9.000E+00
</event>
<event>
      6    666  1.00000E+00  3.06014E+00 -1.00000E+00  2.94140E-01
       2    -1     0     0   501     0  0.000000000E+00  0.000000000E+00  9.740082205E+02  9.740082205E+02  0.000000000E+00  0.00000E+00  9.000E+00
      21    -1     0     0   511   501  0.000000000E+00  0.000000000E+00 -2.783015502E+01  2.783015502E+01  0.000000000E+00  0.00000E+00  9.000E+00
      24     2     1     2     0     0 -2.885837146E+00 -1.018032986E+00  9.721869106E+02  9.756501248E+02  8.207565154E+01  0.00000E+00  9.000E+00
     -11     1     3     3     0     0 -2.851143847E+00 -2.408665046E+01  9.147041906E+01  9.463156616E+01  5.109985977E-04  0.00000E+00  9.000E+00
      12     1     3     3     0     0 -3.469329870E-02  2.306861748E+01  8.807164915E+02  8.810185587E+02  2.157918644E-05  0.00000E+00  9.000E+00
       1     1     1     2   511     0  2.885837146E+00  1.018032986E+00 -2.600884512E+01  2.618825064E+01  2.132480600E-06  0.00000E+00  9.000E+00
</event>
<event>
      6    666  1.00000E+00  4.12973E+00 -1.00000E+00  2.60141E-01
       1    -1     0     0   501     0  0.000000000E+00  0.000000000E+00  6.574314799E+02  6.574314799E+02  0.000000000E+00  0.00000E+00  9.000E+00
      21    -1     0     0   511   501  0.000000000E+00  0.000000000E+00 -2.777605016E+00  2.777605016E+00  0.000000000E+00  0.00000E+00  9.000E+00
     -24     2     1     2     0     0  2.934743234E+00  2.905501868E+00  6.204677564E+02  6.257744315E+02  8.121790274E+01  0.00000E+00  9.000E+00
      11     1     3     3     0     0  7.748739267E+00  2.481667549E+01  5.694379957E+02  5.700311758E+02  5.112263662E-04  0.00000E+00  9.000E+00
     -12     1     3     3     0     0 -4.813996033E+00 -2.191117362E+01  5.102976064E+01  5.574325572E+01  2.523185073E-06  0.00000E+00  9.000E+00
       2     1     1     2   511     0 -2.934743234E+00 -2.905501868E+00  3.418611851E+01  3.443465345E+01  6.743495762E-07  0.00000E+00  9.000E+00
</event>
<event>
      6    666  1.00000E+00  1.84968E+01 -1.00000E+00  1.69175E-01
      21    -1     0     0   511   501  0.000000000E+00  0.000000000E+00  6.216650974E+00  6.216650974E+00  0.000000000E+00  0.00000E+00  9.000E+00
       2    -1     0     0   501     0  0.000000000E+00  0.000000000E+00 -4.194301273E+02  4.194301273E+02  0.000000000E+00  0.00000E+00  9.000E+00
      24     2     1     2     0     0  8.741028502E+00 -1.630115721E+01 -3.667855956E+02  3.756699695E+02  7.908299151E+01  0.00000E+00  9.000E+00
     -11     1     3     3     0     0 -1.979376797E+01  7.958181421E+00 -3.002135085E+01  3.682943672E+01  5.110039372E-04  0.00000E+00  9.000E+00
      12     1     3     3     0     0  2.853479647E+01 -2.425933863E+01 -3.367642447E+02  3.388405328E+02  5.394796609E-06  0.00000E+00  9.000E+00
       1     1     1     2   511     0 -8.741028502E+00  1.630115721E+01 -4.642788075E+01  4.997680879E+01  6.743495762E-07  0.00000E+00  9.000E+00
</event>
<event>
      6    666  1.00000E+00  1.09140E+01 -1.00000E+00  1.91411E-01
       1    -1     0     0   501     0  0.000000000E+00  0.000000000E+00  5.062723705E+02  5.062723705E+02  0.000000000E+00  0.00000E+00  9.000E+00
      21    -1     0     0   511   501  0.000000000E+00  0.000000000E+00 -4.122760907E+00  4.122760907E+00  0.000000000E+00  0.00000E+00  9.000E+00
     -24     2     1     2     0     0  1.083866975E+01  1.279749819E+00  4.342854532E+02  4.416589819E+02  7.962215107E+01  0.00000E+00  9.000E+00
      11     1     3     3     0     0 -2.638998684E+01  2.289683172E+01  2.489313822E+02  2.513712978E+02  5.110057170E-04  0.00000E+00  9.000E+00
     -12     1     3     3     0     0  3.722865659E+01 -2.161708190E+01  1.853540710E+02  1.902876841E+02  2.697398305E-06  0.00000E+00  9.000E+00
       2     1     1     2   511     0 -1.083866975E+01 -1.279749819E+00  6.786415646E+01  6.873614954E+01  9.536743164E-07  0.00000E+00  9.000E+00
</event>
<event>
      6    666  1.00000E+00  9.66813E+00 -1.00000E+00  1.97408E-01
       2    -1     0     0   501     0  0.000000000E+00  0.000000000E+00  1.060167524E+03  1.060167524E+03  0.000000000E+00  0.00000E+00  9.000E+00
      21    -1     0     0   511   501  0.000000000E+00  0.000000000E+00 -7.917368214E+00  7.917368214E+00  0.000000000E+00  0.00000E+00  9.000E+00
      24     2     1     2     0     0  9.378181715E+00  2.349973514E+00  1.055119552E+03  1.057999948E+03  7.741542687E+01  0.00000E+00  9.000E+00
     -11     1     3     3     0     0 -3.292136950E+01 -2.321438805E+00  5.957136616E+02  5.966271636E+02  5.112263662E-04  0.00000E+00  9.000E+00
      12     1     3     3     0     0  4.229955121E+01  4.671412319E+00  4.594058902E+02  4.613727843E+02  5.394796609E-06  0.00000E+00  9.000E+00
       1     1     1     2   511     0 -9.378181715E+00 -2.349973514E+00 -2.869396100E+00  1.008494431E+01  9.127493400E-07  0.00000E+00  9.000E+00
</event>
<event>
      6    666  1.00000E+00  3.15940E+00 -1.00000E+00  2.90075E-01
      -1    -1     0     0     0   501  0.000000000E+00  0.000000000E+00  3.030806414E+01  3.030806414E+01  0.000000000E+00  0.00000E+00  9.000E+00
      21    -1     0     0   501   511  0.000000000E+00  0.000000000E+00 -6.755645059E+01  6.755645059E+01  0.000000000E+00  0.00000E+00  9.000E+00
      24     2     1     2     0     0 -1.974824450E+00 -2.466145896E+00 -1.015158497E+01  7.058414712E+01  6.977883160E+01  0.00000E+00  9.000E+00
     -11     1     3     3     0     0  1.197113617E+01  2.248461148E+01  1.742807751E+01  3.086427936E+01  5.109985977E-04  0.00000E+00  9.000E+00
      12     1     3     3     0     0 -1.394596062E+01 -2.495075737E+01 -2.757966249E+01  3.971986775E+01  5.840038640E-07  0.00000E+00  9.000E+00
      -2     1     1     2     0   511  1.974824450E+00  2.466145896E+00 -2.709680147E+01  2.728036761E+01  0.000000000E+00  0.00000E+00  9.000E+00
</event>
<event>
      6    666  1.00000E+00  1.86542E+01 -1.00000E+00  1.68862E-01
      -1    -1     0     0     0   501  0.000000000E+00  0.000000000E+00  5.099510548E+02  5.099510548E+02  0.000000000E+00  0.00000E+00  9.000E+00
      21    -1     0     0   501   511  0.000000000E+00  0.000000000E+00 -7.273606888E+00  7.273606888E+00  0.000000000E+00  0.00000E+00  9.000E+00
      24     2     1     2     0     0 -3.776571041E+00  1.826787850E+01  4.840732912E+02  4.908790259E+02  7.929242727E+01  0.00000E+00  9.000E+00
     -11     1     3     3     0     0  1.531004291E+01 -2.533571057E+01  1.149895229E+02  1.187387301E+02  5.110039372E-04  0.00000E+00  9.000E+00
      12     1     3     3     0     0 -1.908661395E+01  4.360358908E+01  3.690837682E+02  3.721402958E+02  9.344061824E-06  0.00000E+00  9.000E+00
      -2     1     1     2     0   511  3.776571041E+00 -1.826787850E+01  1.860415673E+01  2.634563572E+01  9.536743164E-07  0.00000E+00  9.000E+00
</event>
<event>
      6    666  1.00000E+00  2.65143E+00 -1.00000E+00  3.13998E-01
      -1    -1     0     0     0   511  0.000000000E+00  0.000000000E+00  1.336355368E+02  1.336355368E+02  0.000000000E+00  0.00000E+00  9.000E+00
       2    -1     0     0   501     0  0.000000000E+00  0.000000000E+00 -1.746672643E+01  1.746672643E+01  0.000000000E+00  0.00000E+00  9.000E+00
      24     2     1     2     0     0 -2.650265351E+00  7.868266827E-02  7.117493872E+01  1.060303365E+02  7.854635733E+01  0.00000E+00  9.000E+00
     -11     1     3     3     0     0  1.785688263E+01  2.282421715E+01  6.956848770E+01  7.536303886E+01  5.110012675E-04  0.00000E+00  9.000E+00
      12     1     3     3     0     0 -2.050714798E+01 -2.274553448E+01  1.606451023E+00  3.066729759E+01  9.019819469E-07  0.00000E+00  9.000E+00
      21     1     1     2   501   511  2.650265351E+00 -7.868266827E-02  4.499387167E+01  4.507192680E+01  6.743495762E-07  0.00000E+00  9.000E+00
</event>
<event>
      6    666  1.00000E+00  6.63307E+00 -1.00000E+00  2.18839E-01
      21    -1     0     0   511   501  0.000000000E+00  0.000000000E+00  3.479445935E+00  3.479445935E+00  0.000000000E+00  0.00000E+00  9.000E+00
       3    -1     0     0   501     0  0.000000000E+00  0.000000000E+00 -5.835071815E+02  5.835071815E+02  0.000000000E+00  0.00000E+00  9.000E+00
     -24     2     1     2     0     0  6.265328556E+00  2.177899936E+00 -4.811630729E+02  4.878997004E+02  8.052463793E+01  0.00000E+00  9.000E+00
      11     1     3     3     0     0 -2.986103745E+01 -1.022517561E+01 -3.461967673E+02  3.476326185E+02  5.110413120E-04  0.00000E+00  9.000E+00
     -12     1     3     3     0     0  3.612636600E+01  1.240307554E+01 -1.349663056E+02  1.402670819E+02  1.907348633E-06  0.00000E+00  9.000E+00
       4     1     1     2   511     0 -6.265328556E+00 -2.177899936E+00 -9.886466266E+01  9.908692705E+01  1.907348633E-06  0.00000E+00  9.000E+00
</event>
<event>
      6    666  1.00000E+00  2.28592E+00 -1.00000E+00  3.37812E-01
       2    -1     0     0   501     0  0.000000000E+00  0.000000000E+00  1.905258367E+03  1.905258367E+03  0.000000000E+00  0.00000E+00  9.000E+00
      -1    -1     0     0     0   511  0.000000000E+00  0.000000000E+00 -9.677662437E-01  9.677662437E-01  0.000000000E+00  0.00000E+00  9.000E+00
      24     2     1     2     0     0  1.174308573E+00 -1.961231799E+00  1.871704848E+03  1.873560299E+03  8.333025438E+01  0.00000E+00  9.000E+00
     -11     1     3     3     0     0 -1.091222447E+01 -3.578790151E+01  5.052594334E+02  5.066428185E+02  5.113117532E-04  0.00000E+00  9.000E+00
      12     1     3     3     0     0  1.208653304E+01  3.382666971E+01  1.366445415E+03  1.366917481E+03  2.157918644E-05  0.00000E+00  9.000E+00
      21     1     1     2   501   511 -1.174308573E+00  1.961231799E+00  3.258575258E+01  3.266583387E+01  0.000000000E+00  0.00000E+00  9.000E+00
</event>
<event>
      6    666  1.00000E+00  6.85038E+00 -1.00000E+00  2.16816E-01
       1    -1     0     0   511     0  0.000000000E+00  0.000000000E+00  1.785192872E+02  1.785192872E+02  0.000000000E+00  0.00000E+00  9.000E+00
      -2    -1     0     0     0   501  0.000000000E+00  0.000000000E+00 -1.639117267E+01  1.639117267E+01  0.000000000E+00  0.00000E+00  9.000E+00
     -24     2     1     2     0     0  2.946621656E+00 -6.184268837E+00  9.691060689E+01  1.293341603E+02  8.537406830E+01  0.00000E+00  9.000E+00
      11     1     3     3     0     0 -3.647289170E+01 -1.088607893E+01  7.471508185E+01  8.385178590E+01  5.109977078E-04  0.00000E+00  9.000E+00
     -12     1     3     3     0     0  3.941951335E+01  4.701810096E+00  2.219552504E+01  4.548237442E+01  6.743495762E-07  0.00000E+00  9.000E+00
      21     1     1     2   511   501 -2.946621656E+00  6.184268837E+00  6.521750767E+01  6.557629958E+01  0.000000000E+00  0.00000E+00  9.000E+00
</event>
<event>
      6    666  1.00000E+00  9.73491E-01 -1.00000E+00  6.72955E-01
       2    -1     0     0   511     0  0.000000000E+00  0.000000000E+00  1.936500194E+03  1.936500194E+03  0.000000000E+00  0.00000E+00  9.000E+00
      -1    -1     0     0     0   501  0.000000000E+00  0.000000000E+00 -8.581410661E-01  8.581410661E-01  0.000000000E+00  0.00000E+00  9.000E+00
      24     2     1     2     0     0  2.403347887E-01 -9.433576531E-01  1.912262590E+03  1.913958614E+03  8.055068723E+01  0.00000E+00  9.000E+00
     -11     1     3     3     0     0  8.539388790E+00  3.883422471E+01  8.854352706E+02  8.863276125E+02  5.109985977E-04  0.00000E+00  9.000E+00
      12     1     3     3     0     0 -8.299054001E+00 -3.977758236E+01  1.026827320E+03  1.027631001E+03  2.157918644E-05  0.00000E+00  9.000E+00
      21     1     1     2   511   501 -2.403347887E-01  9.433576531E-01  2.337946219E+01  2.339972086E+01  3.371747881E-07  0.00000E+00  9.000E+00
</event>
<event>
      6    666  1.00000E+00  1.27829E+01 -1.00000E+00  1.84136E-01
       2    -1     0     0   511     0  0.000000000E+00  0.000000000E+00  3.358136554E+02  3.358136554E+02  0.000000000E+00  0.00000E+00  9.000E+00
      -1    -1     0     0     0   501  0.000000000E+00  0.000000000E+00 -8.562195995E+00  8.562195995E+00  0.000000000E+00  0.00000E+00  9.000E+00
      24     2     1     2     0     0  5.480434448E+00  1.154845939E+01  1.762982480E+02  1.928823726E+02  7.719543603E+01  0.00000E+00  9.000E+00
     -11     1     3     3     0     0  2.928286682E+00  3.680552575E+01  4.079745952E+01  5.502412463E+01  5.109997101E-04  0.00000E+00  9.000E+00
      12     1     3     3     0     0  2.552147766E+00 -2.525706635E+01  1.355007884E+02  1.378582480E+02  3.814697266E-06  0.00000E+00  9.000E+00
      21     1     1     2   511   501 -5.480434448E+00 -1.154845939E+01  1.509532115E+02  1.514934788E+02  2.697398305E-06  0.00000E+00  9.000E+00
</event>
<event>
      6    666  1.00000E+00  8.22911E+00 -1.00000E+00  2.06015E-01
       1    -1     0     0   501     0  0.000000000E+00  0.000000000E+00  6.979251258E+02  6.979251258E+02  0.000000000E+00  0.00000E+00  9.000E+00
      21    -1     0     0   511   501  0.000000000E+00  0.000000000E+00 -3.158847443E+00  3.158847443E+00  0.000000000E+00  0.00000E+00  9.000E+00
     -24     2     1     2     0     0 -2.405965943E-01  8.225593713E+00  6.646817949E+02  6.698943208E+02  8.299876025E+01  0.00000E+00  9.000E+00
      11     1     3     3     0     0  2.852772032E+01  1.594655466E+01  5.627856356E+02  5.637337981E+02  5.112263662E-04  0.00000E+00  9.000E+00
     -12     1     3     3     0     0 -2.876831691E+01 -7.720960946E+00  1.018961593E+02  1.061605227E+02  4.473129043E-06  0.00000E+00  9.000E+00
       2     1     1     2   511     0  2.405965943E-01 -8.225593713E+00  3.008448342E+01  3.118965247E+01  8.259061849E-07  0.00000E+00  9.000E+00
</event>
<event>
      6    666  1.00000E+00  2.96641E+00 -1.00000E+00  2.98219E-01
      -1    -1     0     0     0   511  0.000000000E+00  0.000000000E+00  6.300537924E+00  6.300537924E+00  0.000000000E+00  0.00000E+00  9.000E+00
       2    -1     0     0   501     0  0.000000000E+00  0.000000000E+00 -3.553842554E+02  3.553842554E+02  0.000000000E+00  0.00000E+00  9.000E+00
      24     2     1     2     0     0  2.919662811E+00 -5.245566124E-01 -3.498196459E+02  3.586284588E+02  7.894166947E+01  0.00000E+00  9.000E+00
     -11     1     3     3     0     0  3.952181167E+01  1.022326545E+01 -1.855348731E+02  1.899728346E+02  5.110057170E-04  0.00000E+00  9.000E+00
      12     1     3     3     0     0 -3.660214886E+01 -1.074782206E+01 -1.642847728E+02  1.686556241E+02  2.697398305E-06  0.00000E+00  9.000E+00
      21     1     1     2   501   511 -2.919662811E+00  5.245566124E-01  7.359283970E-01  3.056334598E+00  1.341104507E-07  0.00000E+00  9.000E+00
</event>
<event>
      6    666  1.00000E+00  4.44718E+00 -1.00000E+00  2.52977E-01
       2    -1     0     0   501     0  0.000000000E+00  0.000000000E+00  8.296474757E+01  8.296474757E+01  0.000000000E+00  0.00000E+00  9.000E+00
      -1    -1     0     0     0   511  0.000000000E+00  0.000000000E+00 -2.652287446E+01  2.652287446E+01  0.000000000E+00  0.00000E+00  9.000E+00
      24     2     1     2     0     0 -1.751307863E+00 -4.087829703E+00  6.253122339E+01  1.019472230E+02  8.039468233E+01  0.00000E+00  9.000E+00
     -11     1     3     3     0     0 -1.116274668E+01 -1.162752207E+01 -1.587238310E+01  2.262164293E+01  5.109992373E-04  0.00000E+00  9.000E+00
      12     1     3     3     0     0  9.411438816E+00  7.539692371E+00  7.840360649E+01  7.932558007E+01  9.536743164E-07  0.00000E+00  9.000E+00
      21     1     1     2   501   511  1.751307863E+00  4.087829703E+00 -6.089350274E+00  7.540399039E+00  1.192092896E-07  0.00000E+00  9.000E+00
</event>
<event>
      6    666  1.00000E+00  1.24738E+01 -1.00000E+00  1.85225E-01
      21    -1     0     0   511   501  0.000000000E+00  0.000000000E+00  1.579646425E+01  1.579646425E+01  0.000000000E+00  0.00000E+00  9.000E+00
       2    -1     0     0   501     0  0.000000000E+00  0.000000000E+00 -1.776989565E+02  1.776989565E+02  0.000000000E+00  0.00000E+00  9.000E+00
      24     2     1     2     0     0 -5.129809818E+00 -1.137017232E+01 -1.612887762E+02  1.810065291E+02  8.120159178E+01  0.00000E+00  9.000E+00
     -11     1     3     3     0     0 -3.426981271E+00  8.666125928E+00  6.915376407E+00  1.160467020E+01  5.109976869E-04  0.00000E+00  9.000E+00
      12     1     3     3     0     0 -1.702828547E+00 -2.003629825E+01 -1.682041526E+02  1.694018589E+02  2.697398305E-06  0.00000E+00  9.000E+00
       1     1     1     2   511     0  5.129809818E+00  1.137017232E+01 -6.137161357E-01  1.248889166E+01  1.736161142E-07  0.00000E+00  9.000E+00
</event>
<event>
      6    666  1.00000E+00  4.32553E+00 -1.00000E+00  2.55611E-01
       4    -1     0     0   501     0  0.000000000E+00  0.000000000E+00  6.451423048E+01  6.451423048E+01  0.000000000E+00  0.00000E+00  9.000E+00
      21    -1     0     0   511   501  0.000000000E+00  0.000000000E+00 -3.241468440E+01  3.241468440E+01  0.000000000E+00  0.00000E+00  9.000E+00
      24     2     1     2     0     0  3.738663966E-01 -4.309343048E+00  3.753725076E+01  8.998061683E+01  8.166245158E+01  0.00000E+00  9.000E+00
     -11     1     3     3     0     0  1.077236224E+01  1.386527145E+01 -2.125594623E+01  2.756999802E+01  5.109999326E-04  0.00000E+00  9.000E+00
      12     1     3     3     0     0 -1.039849584E+01 -1.817461449E+01  5.879319699E+01  6.241061881E+01  0.000000000E+00  0.00000E+00  9.000E+00
       3     1     1     2   511     0 -3.738663966E-01  4.309343048E+00 -5.437704681E+00  6.948298050E+00  8.429369702E-08  0.00000E+00  9.000E+00
</event>
<event>
      6    666  1.00000E+00  2.71400E+01 -1.00000E+00  1.56088E-01
      -1    -1     0     0     0   501  0.000000000E+00  0.000000000E+00  5.663451770E+00  5.663451770E+00  0.000000000E+00  0.00000E+00  9.000E+00
       2    -1     0     0   511     0  0.000000000E+00  0.000000000E+00 -6.043043710E+02  6.043043710E+02  0.000000000E+00  0.00000E+00  9.000E+00
      24     2     1     2     0     0  1.488361577E-01  2.713955643E+01 -3.873883800E+02  3.969790602E+02  8.237742139E+01  0.00000E+00  9.000E+00
     -11     1     3     3     0     0  1.864650455E+01 -6.939930345E-01 -1.749262132E+01  2.557666044E+01  5.109992651E-04  0.00000E+00  9.000E+00
      12     1     3     3     0     0 -1.849766840E+01  2.783354946E+01 -3.698957587E+02  3.714023997E+02  0.000000000E+00  0.00000E+00  9.000E+00
      21     1     1     2   511   501 -1.488361577E-01 -2.713955643E+01 -2.112525392E+02  2.129887626E+02  3.814697266E-06  0.00000E+00  9.000E+00
</event>
<event>
      6    666  1.00000E+00  2.56827E+00 -1.00000E+00  3.18807E-01
      -1    -1     0     0     0   511  0.000000000E+00  0.000000000E+00  5.955410852E+00  5.955410852E+00  0.000000000E+00  0.00000E+00  9.000E+00
       2    -1     0     0   501     0  0.000000000E+00  0.000000000E+00 -3.086868586E+02  3.086868586E+02  0.000000000E+00  0.00000E+00  9.000E+00
      24     2     1     2     0     0 -2.260558288E+00 -1.218973131E+00 -3.002954157E+02  3.111024571E+02  8.124534520E+01  0.00000E+00  9.000E+00
     -11     1     3     3     0     0  9.347139269E+00 -2.249307040E+01 -2.558683174E+01  3.532694704E+01  5.109965954E-04  0.00000E+00  9.000E+00
      12     1     3     3     0     0 -1.160769756E+01  2.127409727E+01 -2.747085839E+02  2.757755100E+02  7.629394531E-06  0.00000E+00  9.000E+00
      21     1     1     2   501   511  2.260558288E+00  1.218973131E+00 -2.436032086E+00  3.539812366E+00  5.161913656E-08  0.00000E+00  9.000E+00
</event>
<event>
      6    666  1.00000E+00  6.53489E+00 -1.00000E+00  2.19788E-01
      -1    -1     0     0     0   511  0.000000000E+00  0.000000000E+00  1.548960611E+02  1.548960611E+02  0.000000000E+00  0.00000E+00  9.000E+00
       2    -1     0     0   501     0  0.000000000E+00  0.000000000E+00 -2.534827268E+01  2.534827268E+01  0.000000000E+00  0.00000E+00  9.000E+00
      24     2     1     2     0     0  1.071366573E+00 -6.446464154E+00  4.020415980E+01  9.066203250E+01  8.099706751E+01  0.00000E+00  9.000E+00
     -11     1     3     3     0     0  3.251165592E+01 -1.028911316E+00  4.784603420E+01  5.785593676E+01  5.109994876E-04  0.00000E+00  9.000E+00
      12     1     3     3     0     0 -3.144028935E+01 -5.417552838E+00 -7.641874402E+00  3.280609574E+01  6.194296387E-07  0.00000E+00  9.000E+00
      21     1     1     2   501   511 -1.071366573E+00  6.446464154E+00  8.934362862E+01  8.958230127E+01  1.348699152E-06  0.00000E+00  9.000E+00
</event>
<event>
      6    666  1.00000E+00  7.25225E+01 -1.00000E+00  1.30421E-01
      21    -1     0     0   501   511  0.000000000E+00  0.000000000E+00  1.997140444E+02  1.997140444E+02  0.000000000E+00  0.00000E+00  9.000E+00
      -4    -1     0     0     0   501  0.000000000E+00  0.000000000E+00 -1.840546924E+02  1.840546924E+02  0.000000000E+00  0.00000E+00  9.000E+00
     -24     2     1     2     0     0  4.271868785E+01  5.860569354E+01 -1.604139967E+02  1.933446372E+02  7.993738056E+01  0.00000E+00  9.000E+00
      11     1     3     3     0     0  1.112815733E+01 -1.646816829E+01 -9.897400224E+00  2.220349035E+01  5.109981806E-04  0.00000E+00  9.000E+00
     -12     1     3     3     0     0  3.159053052E+01  7.507386183E+01 -1.505165965E+02  1.711411469E+02  1.907348633E-06  0.00000E+00  9.000E+00
      -3     1     1     2     0   511 -4.271868785E+01 -5.860569354E+01  1.760733486E+02  1.904240996E+02  3.814697266E-06  0.00000E+00  9.000E+00
</event>
<event>
      6    666  1.00000E+00  8.42476E+00 -1.00000E+00  2.04712E-01
      -1    -1     0     0     0   511  0.000000000E+00  0.000000000E+00  7.416324125E+00  7.416324125E+00  0.000000000E+00  0.00000E+00  9.000E+00
       2    -1     0     0   501     0  0.000000000E+00  0.000000000E+00 -3.156565197E+02  3.156565197E+02  0.000000000E+00  0.00000E+00  9.000E+00
      24     2     1     2     0     0  6.882242569E+00  4.859154702E+00 -2.844637203E+02  2.978479073E+02  8.787941201E+01  0.00000E+00  9.000E+00
     -11     1     3     3     0     0  5.817330066E+00 -4.110952862E+01 -1.153515305E+02  1.225961266E+02  5.109932582E-04  0.00000E+00  9.000E+00
      12     1     3     3     0     0  1.064912503E+00  4.596868333E+01 -1.691121898E+02  1.752517807E+02  5.394796609E-06  0.00000E+00  9.000E+00
      21     1     1     2   501   511 -6.882242569E+00 -4.859154702E+00 -2.377647523E+01  2.522493650E+01  4.768371582E-07  0.00000E+00  9.000E+00
</event>
<event>
      6    666  1.00000E+00  3.86759E+00 -1.00000E+00  2.66852E-01
       2    -1     0     0   501     0  0.000000000E+00  0.000000000E+00  1.838447680E+02  1.838447680E+02  0.000000000E+00  0.00000E+00  9.000E+00
      21    -1     0     0   511   501  0.000000000E+00  0.000000000E+00 -2.817451220E+01  2.817451220E+01  0.000000000E+00  0.00000E+00  9.000E+00
      24     2     1     2     0     0  1.652636004E+00 -3.496718352E+00  1.748501990E+02  1.924532774E+02  8.031633477E+01  0.00000E+00  9.000E+00
     -11     1     3     3     0     0  4.577443929E+00  3.766847304E+01  1.003783871E+02  1.073111712E+02  5.109968179E-04  0.00000E+00  9.000E+00
      12     1     3     3     0     0 -2.924807924E+00 -4.116519139E+01  7.447181186E+01  8.514210618E+01  1.348699152E-06  0.00000E+00  9.000E+00
       1     1     1     2   511     0 -1.652636004E+00  3.496718352E+00 -1.917994322E+01  1.956600283E+01  5.840038640E-07  0.00000E+00  9.000E+00
</event>
<event>
      6    666  1.00000E+00  4.55955E+00 -1.00000E+00  2.50656E-01
      -3    -1     0     0     0   511  0.000000000E+00  0.000000000E+00  1.239937860E+01  1.239937860E+01  0.000000000E+00  0.00000E+00  9.000E+00
       4    -1     0     0   501     0  0.000000000E+00  0.000000000E+00 -1.534695168E+02  1.534695168E+02  0.000000000E+00  0.00000E+00  9.000E+00
      24     2     1     2     0     0 -3.267714219E+00  3.179865120E+00 -1.394485975E+02  1.610295884E+02  8.039793216E+01  0.00000E+00  9.000E+00
     -11     1     3     3     0     0 -1.074443451E+01 -1.752663115E+01 -7.256769655E-01  2.057066552E+01  5.109992657E-04  0.00000E+00  9.000E+00
      12     1     3     3     0     0  7.476720293E+00  2.070649627E+01 -1.387229205E+02  1.404589229E+02  1.907348633E-06  0.00000E+00  9.000E+00
      21     1     1     2   501   511  3.267714219E+00 -3.179865120E+00 -1.621540747E+00  4.839307057E+00  5.575503985E-08  0.00000E+00  9.000E+00
</event>
<event>
      6    666  1.00000E+00  4.84727E+00 -1.00000E+00  2.45150E-01
      -2    -1     0     0     0   501  0.000000000E+00  0.000000000E+00  2.865808683E+00  2.865808683E+00  0.000000000E+00  0.00000E+00  9.000E+00
       1    -1     0     0   511     0  0.000000000E+00  0.000000000E+00 -1.076179478E+03  1.076179478E+03  0.000000000E+00  0.00000E+00  9.000E+00
     -24     2     1     2     0     0 -1.181194315E-01  4.845833274E+00 -5.533142606E+02  5.590232861E+02  7.954160757E+01  0.00000E+00  9.000E+00
      11     1     3     3     0     0  2.122237549E+01  3.583568765E+01 -2.621325308E+02  2.654205143E+02  5.110413120E-04  0.00000E+00  9.000E+00
     -12     1     3     3     0     0 -2.134049492E+01 -3.098985437E+01 -2.911817298E+02  2.936027717E+02  0.000000000E+00  0.00000E+00  9.000E+00
      21     1     1     2   511   501  1.181194315E-01 -4.845833274E+00 -5.199994084E+02  5.200220003E+02  7.629394531E-06  0.00000E+00  9.000E+00
</event>
<event>
      6    666  1.00000E+00  4.74803E+01 -1.00000E+00  1.40340E-01
      21    -1     0     0   511   501  0.000000000E+00  0.000000000E+00  1.860162838E+01  1.860162838E+01  0.000000000E+00  0.00000E+00  9.000E+00
       2    -1     0     0   501     0  0.000000000E+00  0.000000000E+00 -2.695516391E+02  2.695516391E+02  0.000000000E+00  0.00000E+00  9.000E+00
      24     2     1     2     0     0  3.090395957E+01 -3.604608610E+01 -1.529085044E+02  1.792197465E+02  8.052534859E+01  0.00000E+00  9.000E+00
     -11     1     3     3     0     0 -2.754580682E+01 -1.321849889E+01 -5.536942658E+01  6.323981014E+01  5.109981527E-04  0.00000E+00  9.000E+00
      12     1     3     3     0     0  5.844976639E+01 -2.282758721E+01 -9.753907785E+01  1.159799364E+02  0.000000000E+00  0.00000E+00  9.000E+00
       1     1     1     2   511     0 -3.090395957E+01  3.604608610E+01 -9.804150627E+01  1.089335210E+02  1.348699152E-06  0.00000E+00  9.000E+00
</event>
<event>
      6    666  1.00000E+00  1.15780E+01 -1.00000E+00  1.88624E-01
      -2    -1     0     0     0   501  0.000000000E+00  0.000000000E+00  3.347133237E+01  3.347133237E+01  0.000000000E+00  0.00000E+00  9.000E+00
      21    -1     0     0   501   511  0.000000000E+00  0.000000000E+00 -6.665580926E+01  6.665580926E+01  0.000000000E+00  0.00000E+00  9.000E+00
     -24     2     1     2     0     0 -8.659616696E+00  7.685172244E+00 -2.349805462E+01  8.503152603E+01  8.089592706E+01  0.00000E+00  9.000E+00
      11     1     3     3     0     0 -2.457315608E+01  1.136397761E+00 -4.867359671E+01  5.453668872E+01  5.109985977E-04  0.00000E+00  9.000E+00
     -12     1     3     3     0     0  1.591353938E+01  6.548774483E+00  2.517554209E+01  3.049483731E+01  0.000000000E+00  0.00000E+00  9.000E+00
      -1     1     1     2     0   511  8.659616696E+00 -7.685172244E+00 -9.686422272E+00  1.509561559E+01  0.000000000E+00  0.00000E+00  9.000E+00
</event>
<event>
      6    666  1.00000E+00  2.92575E+01 -1.00000E+00  1.53764E-01
      21    -1     0     0   501   511  0.000000000E+00  0.000000000E+00  1.812864871E+02  1.812864871E+02  0.000000000E+00  0.00000E+00  9.000E+00
      -1    -1     0     0     0   501  0.000000000E+00  0.000000000E+00 -4.398471107E+01  4.398471107E+01  0.000000000E+00  0.00000E+00  9.000E+00
      24     2     1     2     0     0 -1.761156665E+01  2.336307680E+01  6.428378936E-01  8.551546121E+01  8.035222603E+01  0.00000E+00  9.000E+00
     -11     1     3     3     0     0 -4.425167056E+01  1.038836066E+01  2.048130615E+01  4.985591526E+01  5.109990983E-04  0.00000E+00  9.000E+00
      12     1     3     3     0     0  2.664010390E+01  1.297471614E+01 -1.983846826E+01  3.565954595E+01  2.384185791E-07  0.00000E+00  9.000E+00
      -2     1     1     2     0   511  1.761156665E+01 -2.336307680E+01  1.366589381E+02  1.397557370E+02  3.303624740E-06  0.00000E+00  9.000E+00
</event>
<event>
      6    666  1.00000E+00  1.81742E+01 -1.00000E+00  1.69831E-01
      21    -1     0     0   511   501  0.000000000E+00  0.000000000E+00  1.157308684E+02  1.157308684E+02  0.000000000E+00  0.00000E+00  9.000E+00
       2    -1     0     0   501     0  0.000000000E+00  0.000000000E+00 -2.506096829E+01  2.506096829E+01  0.000000000E+00  0.00000E+00  9.000E+00
      24     2     1     2     0     0 -1.040225585E+01  1.490278548E+01  6.432291291E+01  1.087845926E+02  8.582744614E+01  0.00000E+00  9.000E+00
     -11     1     3     3     0     0 -2.331867803E+01  1.443218986E+01  8.224018642E+01  8.669196682E+01  5.110012675E-04  0.00000E+00  9.000E+00
      12     1     3     3     0     0  1.291642218E+01  4.705956267E-01 -1.791727351E+01  2.209262574E+01  0.000000000E+00  0.00000E+00  9.000E+00
       1     1     1     2   511     0  1.040225585E+01 -1.490278548E+01  2.634698718E+01  3.200724411E+01  4.768371582E-07  0.00000E+00  9.000E+00
</event>
<event>
      6    666  1.00000E+00  1.42779E+01 -1.00000E+00  1.79377E-01
       2    -1     0     0   501     0  0.000000000E+00  0.000000000E+00  3.902750581E+02  3.902750581E+02  0.000000000E+00  0.00000E+00  9.000E+00
      21    -1     0     0   511   501  0.000000000E+00  0.000000000E+00 -6.017096533E+00  6.017096533E+00  0.000000000E+00  0.00000E+00  9.000E+00
      24     2     1     2     0     0  1.388364081E+01  3.332198058E+00  3.449579474E+02  3.544788776E+02  8.034569144E+01  0.00000E+00  9.000E+00
     -11     1     3     3     0     0 -2.200421619E+01 -1.585525378E+01  2.458462573E+02  2.473377384E+02  5.109345195E-04  0.00000E+00  9.000E+00
      12     1     3     3     0     0  3.588785700E+01  1.918745184E+01  9.911169013E+01  1.071411392E+02  3.015782986E-06  0.00000E+00  9.000E+00
       1     1     1     2   511     0 -1.388364081E+01 -3.332198058E+00  3.930001410E+01  4.181327702E+01  4.768371582E-07  0.00000E+00  9.000E+00
</event>
<event>
      6    666  1.00000E+00  6.64410E+00 -1.00000E+00  2.18734E-01
       2    -1     0     0   501     0  0.000000000E+00  0.000000000E+00  6.451736306E+02  6.451736306E+02  0.000000000E+00  0.00000E+00  9.000E+00
      -1    -1     0     0     0   511  0.000000000E+00  0.000000000E+00 -3.480658054E+00  3.480658054E+00  0.000000000E+00  0.00000E+00  9.000E+00
      24     2     1     2     0     0 -6.468835968E+00 -1.515979592E+00  6.303732837E+02  6.355287643E+02  8.051204551E+01  0.00000E+00  9.000E+00
     -11     1     3     3     0     0 -4.766700395E+00  3.845813604E+00  1.090704457E+00  6.221041023E+00  5.109975103E-04  0.00000E+00  9.000E+00
      12     1     3     3     0     0 -1.702135572E+00 -5.361793197E+00  6.292825792E+02  6.293077233E+02  1.705984480E-05  0.00000E+00  9.000E+00
      21     1     1     2   501   511  6.468835968E+00  1.515979592E+00  1.131968886E+01  1.312552433E+01  3.371747881E-07  0.00000E+00  9.000E+00
</event>
<event>
      6    666  1.00000E+00  1.64654E+01 -1.00000E+00  1.73607E-01
      -1    -1     0     0     0   511  0.000000000E+00  0.000000000E+00  1.087414213E+01  1.087414213E+01  0.000000000E+00  0.00000E+00  9.000E+00
       2    -1     0     0   501     0  0.000000000E+00  0.000000000E+00 -2.358757756E+02  2.358757756E+02  0.000000000E+00  0.00000E+00  9.000E+00
      24     2     1     2     0     0 -7.950122413E+00 -1.441892607E+01 -2.077408728E+02  2.228952801E+02  7.908808885E+01  0.00000E+00  9.000E+00
     -11     1     3     3     0     0  1.859633158E+01 -1.769017869E+01 -1.817059292E+01  3.144735947E+01  5.110006556E-04  0.00000E+00  9.000E+00
      12     1     3     3     0     0 -2.654645399E+01  3.271252625E+00 -1.895702799E+02  1.914479206E+02  3.814697266E-06  0.00000E+00  9.000E+00
      21     1     1     2   501   511  7.950122413E+00  1.441892607E+01 -1.726076065E+01  2.385463757E+01  4.129530925E-07  0.00000E+00  9.000E+00
</event>
<event>
      6    666  1.00000E+00  1.49310E+01 -1.00000E+00  1.77525E-01
      21    -1     0     0   511   501  0.000000000E+00  0.000000000E+00  2.680953209E+00  2.680953209E+00  0.000000000E+00  0.00000E+00  9.000E+00
       2    -1     0     0   501     0  0.000000000E+00  0.000000000E+00 -1.675184320E+03  1.675184320E+03  0.000000000E+00  0.00000E+00  9.000E+00
      24     2     1     2     0     0  1.044480498E+01 -1.066961368E+01 -1.640124938E+03  1.642210017E+03  8.136949558E+01  0.00000E+00  9.000E+00
     -11     1     3     3     0     0  1.931766974E+01 -3.403237348E+01 -4.175667037E+02  4.193963840E+02  5.109985977E-04  0.00000E+00  9.000E+00
      12     1     3     3     0     0 -8.872864767E+00  2.336275980E+01 -1.222558234E+03  1.222813633E+03  1.525878906E-05  0.00000E+00  9.000E+00
       1     1     1     2   511     0 -1.044480498E+01  1.066961368E+01 -3.237842885E+01  3.565525574E+01  1.719260824E-06  0.00000E+00  9.000E+00
</event>
<event>
      6    666  1.00000E+00  1.18005E+01 -1.00000E+00  1.87743E-01
      21    -1     0     0   511   501  0.000000000E+00  0.000000000E+00  3.968306223E+01  3.968306223E+01  0.000000000E+00  0.00000E+00  9.000E+00
       2    -1     0     0   501     0  0.000000000E+00  0.000000000E+00 -6.920802790E+01  6.920802790E+01  0.000000000E+00  0.00000E+00  9.000E+00
      24     2     1     2     0     0 -9.598572902E+00 -6.864392151E+00 -4.242782438E+01  9.140577503E+01  8.009770874E+01  0.00000E+00  9.000E+00
     -11     1     3     3     0     0  1.746390115E+00  1.370392954E+01  2.022586179E+01  2.449353075E+01  5.109988758E-04  0.00000E+00  9.000E+00
      12     1     3     3     0     0 -1.134496302E+01 -2.056832170E+01 -6.265368617E+01  6.691224428E+01  9.536743164E-07  0.00000E+00  9.000E+00
       1     1     1     2   511     0  9.598572902E+00  6.864392151E+00  1.290285871E+01  1.748531511E+01  3.769728732E-07  0.00000E+00  9.000E+00
</event>
<event>
      6    666  1.00000E+00  6.52826E+00 -1.00000E+00  2.19853E-01
      21    -1     0     0   511   501  0.000000000E+00  0.000000000E+00  6.416480373E+00  6.416480373E+00  0.000000000E+00  0.00000E+00  9.000E+00
       2    -1     0     0   501     0  0.000000000E+00  0.000000000E+00 -3.139641643E+02  3.139641643E+02  0.000000000E+00  0.00000E+00  9.000E+00
      24     2     1     2     0     0  1.543281978E-01 -6.526430743E+00 -2.926148582E+02  3.040831786E+02  8.246518156E+01  0.00000E+00  9.000E+00
     -11     1     3     3     0     0  1.468209702E+01  3.471479305E+01 -1.089663709E+02  1.153011310E+02  5.109985977E-04  0.00000E+00  9.000E+00
      12     1     3     3     0     0 -1.452776882E+01 -4.124122380E+01 -1.836484873E+02  1.887820476E+02  2.697398305E-06  0.00000E+00  9.000E+00
       1     1     1     2   511     0 -1.543281978E-01  6.526430743E+00 -1.493282577E+01  1.629746609E+01  1.685873940E-07  0.00000E+00  9.000E+00
</event>
<event>
      6    666  1.00000E+00  9.86270E+00 -1.00000E+00  1.96395E-01
       2    -1     0     0   511     0  0.000000000E+00  0.000000000E+00  1.383035125E+03  1.383035125E+03  0.000000000E+00  0.00000E+00  9.000E+00
      -3    -1     0     0     0   501  0.000000000E+00  0.000000000E+00 -3.388931533E+00  3.388931533E+00  0.000000000E+00  0.00000E+00  9.000E+00
      24     2     1     2     0     0  4.837493200E+00  8.594852931E+00  4.741130002E+02  4.808371546E+02  7.952332646E+01  0.00000E+00  9.000E+00
     -11     1     3     3     0     0 -2.958993556E+01  2.779921159E+01  2.278849243E+02  2.314733228E+02  5.110199553E-04  0.00000E+00  9.000E+00
      12     1     3     3     0     0  3.442742876E+01 -1.920435866E+01  2.462280759E+02  2.493638318E+02  0.000000000E+00  0.00000E+00  9.000E+00
      21     1     1     2   511   501 -4.837493200E+00 -8.594852931E+00  9.055331930E+02  9.055869017E+02  1.868812365E-05  0.00000E+00  9.000E+00
</event>
<event>
      6    666  1.00000E+00  6.15227E+00 -1.00000E+00  2.23717E-01
       2    -1     0     0   501     0  0.000000000E+00  0.000000000E+00  1.440918573E+03  1.440918573E+03  0.000000000E+00  0.00000E+00  9.000E+00
      -1    -1     0     0     0   511  0.000000000E+00  0.000000000E+00 -1.478467349E+01  1.478467349E+01  0.000000000E+00  0.00000E+00  9.000E+00
      24     2     1     2     0     0  5.902648410E+00  1.734706450E+00  1.439061393E+03  1.441386454E+03  8.160493536E+01  0.00000E+00  9.000E+00
     -11     1     3     3     0     0  2.083520715E+01  2.191030019E+01  2.201380794E+02  2.222047279E+02  5.110555493E-04  0.00000E+00  9.000E+00
      12     1     3     3     0     0 -1.493255874E+01 -2.017559374E+01  1.218923314E+03  1.219181726E+03  2.642899792E-05  0.00000E+00  9.000E+00
      21     1     1     2   501   511 -5.902648410E+00 -1.734706450E+00 -1.292749358E+01  1.431679276E+01  1.800020799E-06  0.00000E+00  9.000E+00
</event>
<event>
      6    666  1.00000E+00  4.28911E+00 -1.00000E+00  2.56425E-01
      -2    -1     0     0     0   511  0.000000000E+00  0.000000000E+00  6.217859924E+00  6.217859924E+00  0.000000000E+00  0.00000E+00  9.000E+00
       1    -1     0     0   501     0  0.000000000E+00  0.000000000E+00 -3.743520460E+02  3.743520460E+02  0.000000000E+00  0.00000E+00  9.000E+00
     -24     2     1     2     0     0 -4.247454356E+00  5.963043913E-01 -3.669242146E+02  3.761133962E+02  8.251976202E+01  0.00000E+00  9.000E+00
      11     1     3     3     0     0 -2.510231441E+01  3.459206514E+01 -1.871878451E+02  1.920052773E+02  5.110270743E-04  0.00000E+00  9.000E+00
     -12     1     3     3     0     0  2.085486005E+01 -3.399576075E+01 -1.797363695E+02  1.841081189E+02  0.000000000E+00  0.00000E+00  9.000E+00
      21     1     1     2   501   511  4.247454356E+00 -5.963043913E-01 -1.209971453E+00  4.456509660E+00  9.771344847E-08  0.00000E+00  9.000E+00
</event>
<event>
      6    666  1.00000E+00  1.88355E+00 -1.00000E+00  3.75450E-01
       2    -1     0     0   501     0  0.000000000E+00  0.000000000E+00  5.631416479E+02  5.631416479E+02  0.000000000E+00  0.00000E+00  9.000E+00
      -1    -1     0     0     0   511  0.000000000E+00  0.000000000E+00 -3.387469514E+00  3.387469514E+00  0.000000000E+00  0.00000E+00  9.000E+00
      24     2     1     2     0     0  1.878434538E+00 -1.387626010E-01  5.547145744E+02  5.611490263E+02  8.471377082E+01  0.00000E+00  9.000E+00
     -11     1     3     3     0     0  2.356792225E+01 -2.922444534E+01  4.186511124E+02  4.203311422E+02  5.109985977E-04  0.00000E+00  9.000E+00
      12     1     3     3     0     0 -2.168948771E+01  2.908568274E+01  1.360634620E+02  1.408178842E+02  2.697398305E-06  0.00000E+00  9.000E+00
      21     1     1     2   501   511 -1.878434538E+00  1.387626010E-01  5.039604009E+00  5.380091072E+00  1.685873940E-07  0.00000E+00  9.000E+00
</event>
<event>
      6    666  1.00000E+00  9.51386E+00 -1.00000E+00  1.98233E-01
      21    -1     0     0   501   511  0.000000000E+00  0.000000000E+00  1.201502673E+01  1.201502673E+01  0.000000000E+00  0.00000E+00  9.000E+00
      -1    -1     0     0     0   501  0.000000000E+00  0.000000000E+00 -1.799608600E+02  1.799608600E+02  0.000000000E+00  0.00000E+00  9.000E+00
      24     2     1     2     0     0 -8.830654576E+00 -3.540202204E+00 -1.587227892E+02  1.787253006E+02  8.160450824E+01  0.00000E+00  9.000E+00
     -11     1     3     3     0     0  5.815119731E+00 -3.348868138E+01 -1.310881134E+02  1.354230441E+02  5.110021574E-04  0.00000E+00  9.000E+00
      12     1     3     3     0     0 -1.464577431E+01  2.994847918E+01 -2.763467580E+01  4.330225649E+01  8.920806376E-07  0.00000E+00  9.000E+00
      -2     1     1     2     0   511  8.830654576E+00  3.540202204E+00 -9.223044124E+00  1.325058621E+01  2.665600750E-07  0.00000E+00  9.000E+00
</event>
<event>
      6    666  1.00000E+00  1.81603E+00 -1.00000E+00  3.83586E-01
       2    -1     0     0   511     0  0.000000000E+00  0.000000000E+00  2.069335073E+02  2.069335073E+02  0.000000000E+00  0.00000E+00  9.000E+00
      -1    -1     0     0     0   501  0.000000000E+00  0.000000000E+00 -7.660356638E+00  7.660356638E+00  0.000000000E+00  0.00000E+00  9.000E+00
      24     2     1     2     0     0 -1.814378581E+00 -7.746996463E-02  1.916804354E+02  2.067869890E+02  7.756398348E+01  0.00000E+00  9.000E+00
     -11     1     3     3     0     0 -1.023699499E+01 -3.547821139E+01  6.263690243E+01  7.271094206E+01  5.110021574E-04  0.00000E+00  9.000E+00
      12     1     3     3     0     0  8.422616410E+00  3.540074142E+01  1.290435330E+02  1.340760470E+02  0.000000000E+00  0.00000E+00  9.000E+00
      21     1     1     2   511   501  1.814378581E+00  7.746996463E-02  7.592715203E+00  7.806874879E+00  1.460009660E-07  0.00000E+00  9.000E+00
</event>
<event>
      6    666  1.00000E+00  1.26028E+01 -1.00000E+00  1.84766E-01
      -1    -1     0     0     0   511  0.000000000E+00  0.000000000E+00  1.581347163E+01  1.581347163E+01  0.000000000E+00  0.00000E+00  9.000E+00
       2    -1     0     0   501     0  0.000000000E+00  0.000000000E+00 -1.516290004E+02  1.516290004E+02  0.000000000E+00  0.00000E+00  9.000E+00
      24     2     1     2     0     0  1.729267716E+00  1.248361476E+01 -1.294708982E+02  1.533327115E+02  8.117497112E+01  0.00000E+00  9.000E+00
     -11     1     3     3     0     0  2.748766135E+01 -1.531305303E+01 -1.950584605E+01  3.702079348E+01  5.109979859E-04  0.00000E+00  9.000E+00
      12     1     3     3     0     0 -2.575839363E+01  2.779666779E+01 -1.099650522E+02  1.163119181E+02  1.907348633E-06  0.00000E+00  9.000E+00
      21     1     1     2   501   511 -1.729267716E+00 -1.248361476E+01 -6.344630536E+00  1.410976049E+01  2.528810911E-07  0.00000E+00  9.000E+00
</event>
<event>
      6    666  1.00000E+00  4.67984E+00 -1.00000E+00  2.48282E-01
      21    -1     0     0   511   501  0.000000000E+00  0.000000000E+00  4.412739775E+00  4.412739775E+00  0.000000000E+00  0.00000E+00  9.000E+00
       2    -1     0     0   501     0  0.000000000E+00  0.000000000E+00 -8.703545786E+02  8.703545786E+02  0.000000000E+00  0.00000E+00  9.000E+00
      24     2     1     2     0     0  2.616060972E+00 -3.880353096E+00 -8.662709422E+02  8.700759194E+02  8.114714583E+01  0.00000E+00  9.000E+00
     -11     1     3     3     0     0 -1.858182947E+01 -2.836634577E+01 -6.914035202E+02  6.922346147E+02  5.111124946E-04  0.00000E+00  9.000E+00
      12     1     3     3     0     0  2.119789044E+01  2.448599267E+01 -1.748674220E+02  1.778413047E+02  2.697398305E-06  0.00000E+00  9.000E+00
       1     1     1     2   511     0 -2.616060972E+00  3.880353096E+00  3.291034057E-01  4.691398961E+00  5.841226678E-07  0.00000E+00  9.000E+00
</event>
<event>
      6    666  1.00000E+00  5.03587E+00 -1.00000E+00  2.37887E-01
      -4    -1     0     0     0   501  0.000000000E+00  0.000000000E+00  1.031034044E+02  1.031034044E+02  0.000000000E+00  0.00000E+00  9.000E+00
       1    -1     0     0   511     0  0.000000000E+00  0.000000000E+00 -2.108016256E+01  2.108016256E+01  0.000000000E+00  0.00000E+00  9.000E+00
     -24     2     1     2     0     0 -2.520774147E+00 -4.359551468E+00  8.561700721E+01  1.179968763E+02  8.104092112E+01  0.00000E+00  9.000E+00
      11     1     3     3     0     0 -3.959997318E+01 -2.184036454E+00  2.492761123E+01  4.684350214E+01  5.110003775E-04  0.00000E+00  9.000E+00
     -12     1     3     3     0     0  3.707919903E+01 -2.175515014E+00  6.068939598E+01  7.115337414E+01  1.507891493E-06  0.00000E+00  9.000E+00
      21     1     1     2   511   501  2.520774147E+00  4.359551468E+00 -3.593765406E+00  6.186690642E+00  9.424321831E-08  0.00000E+00  9.000E+00
</event>
<event>
      6    666  1.00000E+00  1.74748E+00 -1.00000E+00  3.92585E-01
       1    -1     0     0   501     0  0.000000000E+00  0.000000000E+00  1.693607755E+02  1.693607755E+02  0.000000000E+00  0.00000E+00  9.000E+00
      21    -1     0     0   511   501  0.000000000E+00  0.000000000E+00 -2.581118363E+01  2.581118363E+01  0.000000000E+00  0.00000E+00  9.000E+00
     -24     2     1     2     0     0  6.303165629E-01 -1.629838542E+00  1.605810456E+02  1.780510920E+02  7.689515903E+01  0.00000E+00  9.000E+00
      11     1     3     3     0     0  2.585048594E+01  1.469515965E+01  1.360608012E+02  1.392721687E+02  5.109950380E-04  0.00000E+00  9.000E+00
     -12     1     3     3     0     0 -2.522016937E+01 -1.632499820E+01  2.452024441E+01  3.877892334E+01  8.920806376E-07  0.00000E+00  9.000E+00
       2     1     1     2   511     0 -6.303165629E-01  1.629838542E+00 -1.703145377E+01  1.712086710E+01  6.743495762E-07  0.00000E+00  9.000E+00
</event>
<event>
      6    666  1.00000E+00  7.28934E+00 -1.00000E+00  2.13028E-01
       1    -1     0     0   501     0  0.000000000E+00  0.000000000E+00  2.118283831E+02  2.118283831E+02  0.000000000E+00  0.00000E+00  9.000E+00
      21    -1     0     0   511   501  0.000000000E+00  0.000000000E+00 -2.334646142E+01  2.334646142E+01  0.000000000E+00  0.00000E+00  9.000E+00
     -24     2     1     2     0     0 -3.665688238E+00  6.300573186E+00  2.026738963E+02  2.192203268E+02  8.323285980E+01  0.00000E+00  9.000E+00
      11     1     3     3     0     0 -7.572470176E+00  3.595366166E+00  2.101742438E+02  2.103413458E+02  5.109914783E-04  0.00000E+00  9.000E+00
     -12     1     3     3     0     0  3.906781938E+00  2.705207020E+00 -7.500347573E+00  8.878981014E+00  6.690604782E-07  0.00000E+00  9.000E+00
       4     1     1     2   511     0  3.665688238E+00 -6.300573186E+00 -1.419197460E+01  1.595451773E+01  2.920019320E-07  0.00000E+00  9.000E+00
</event>
</LesHouchesEvents>
