<LesHouchesEvents version="1.0">
<!--
file generated with POWHEG-BOX version 1.0
*** Events obtained merging wp and wm samples ***
*** Input file for wp events was: ***
! W^+ + jet production parameter
idvecbos 24
vdecaymode 1
 
numevts 625
ih1   1        ! hadron 1 (1 for protons, -1 for antiprotons)
ih2   1        ! hadron 2 (1 for protons, -1 for antiprotons)
ndns1 131      ! pdf set for hadron 1 (mlm numbering)
ndns2 131      ! pdf set for hadron 2 (mlm numbering)
ebeam1 3500d0  ! energy of beam 1
ebeam2 3500d0  ! energy of beam 2
! To be set only if using LHA pdfs
lhans1  10050  ! pdf set for hadron 1 (LHA numbering)
lhans2  10050  ! pdf set for hadron 2 (LHA numbering)
 
ncall1 10000   ! number of calls for initializing the integration grid
itmx1    4     ! number of iterations for initializing the integration grid
ncall2 10000   ! number of calls for computing the integral and finding upper bound
itmx2    5     ! number of iterations for computing the integral and finding upper bound
foldcsi   5    ! number of folds on csi integration
foldy     5    ! number of folds on  y  integration
foldphi   5    ! number of folds on phi integration
nubound 10000  ! number of bbarra calls to setup norm of upper bounding function
icsimax  1     ! <= 100, number of csi subdivision when computing the upper bounds
iymax    1     ! <= 100, number of y subdivision when computing the upper bounds
xupbound 2d0   ! increase upper bound for radiation generation
 
############################################################################
 
! W+jet production
 
bornsuppfact 0
withdamp 0
bornzerodamp 0
ptsqmin 0.8
withnegweights 0
hfact 0
bornktmin  05
 
# Integration grids
use-old-grid    0
use-old-ubound  0
 
# Use fixed scales
runningscale 0
runningscales 0
facscfact 1.0
renscfact 1.13418
#facscfact 0.5
#renscfact 0.56709
#facscfact 2.0
#renscfact 2.26836
btlscalereal 1
btlscalect 1
ckkwscalup 0
 
masswindow_low  5d0
masswindow_high 5d0
*** Input file for wm events was: ***
! W^+ + jet production parameter
idvecbos -24
vdecaymode 1
 
numevts 425
ih1   1        ! hadron 1 (1 for protons, -1 for antiprotons)
ih2   1        ! hadron 2 (1 for protons, -1 for antiprotons)
ndns1 131      ! pdf set for hadron 1 (mlm numbering)
ndns2 131      ! pdf set for hadron 2 (mlm numbering)
ebeam1 3500d0  ! energy of beam 1
ebeam2 3500d0  ! energy of beam 2
! To be set only if using LHA pdfs
lhans1  10050  ! pdf set for hadron 1 (LHA numbering)
lhans2  10050  ! pdf set for hadron 2 (LHA numbering)
 
ncall1 10000   ! number of calls for initializing the integration grid
itmx1    4     ! number of iterations for initializing the integration grid
ncall2 10000   ! number of calls for computing the integral and finding upper bound
itmx2    5     ! number of iterations for computing the integral and finding upper bound
foldcsi   5    ! number of folds on csi integration
foldy     5    ! number of folds on  y  integration
foldphi   5    ! number of folds on phi integration
nubound 10000  ! number of bbarra calls to setup norm of upper bounding function
icsimax  1     ! <= 100, number of csi subdivision when computing the upper bounds
iymax    1     ! <= 100, number of y subdivision when computing the upper bounds
xupbound 2d0   ! increase upper bound for radiation generation
 
############################################################################
 
! W+jet production
 
bornsuppfact 0
withdamp 0
bornzerodamp 0
ptsqmin 0.8
withnegweights 0
hfact 0
bornktmin  05
 
# Integration grids
use-old-grid    0
use-old-ubound  0
 
# Use fixed scales
runningscale 0
runningscales 0
facscfact 1.0
renscfact 1.13418
#facscfact 0.5
#renscfact 0.56709
#facscfact 2.0
#renscfact 2.26836
btlscalereal 1
btlscalect 1
ckkwscalup 0
 
masswindow_low  5d0
masswindow_high 5d0
*** End of input files ***
 Random number generator initialized with:            0            -1             0
-->
<init>
     2212     2212  3.50000E+03  3.50000E+03     -1     -1     -1     -1      3      1
  7.01866E+03  2.61866E+01  1.00000E+00    666
</init>
<event>
      7    666  1.00000E+00  2.44640E+00 -1.00000E+00  3.26456E-01
      -1    -1     0     0     0   502  0.000000000E+00  0.000000000E+00  6.223165355E+01  6.223165355E+01  0.000000000E+00  0.00000E+00  9.000E+00
       2    -1     0     0   501     0  0.000000000E+00  0.000000000E+00 -3.250432853E+01  3.250432853E+01  0.000000000E+00  0.00000E+00  9.000E+00
      24     2     1     2     0     0  3.470977685E+00 -6.183760623E+00  3.129024099E+01  8.696813904E+01  8.083372715E+01  0.00000E+00  9.000E+00
     -11     1     3     3     0     0  2.749826076E+01  2.502736253E+01  8.566554374E-01  3.719216421E+01  5.109989100E-04  0.00000E+00  9.000E+00
      12     1     3     3     0     0 -2.402728307E+01 -3.121112315E+01  3.043358556E+01  4.977597483E+01  1.066240300E-06  0.00000E+00  9.000E+00
      21     1     1     2   512   502 -1.277084208E+00  3.126176245E+00 -2.084678738E+00  3.968602705E+00  9.424321831E-08  0.00000E+00  9.000E+00
      21     1     1     2   501   512 -2.193893477E+00  3.057584378E+00  5.217627629E-01  3.799240345E+00  5.424104548E-08  0.00000E+00  9.000E+00
</event>
<event>
      7    666  1.00000E+00  6.72759E+00 -1.00000E+00  2.17946E-01
      -1    -1     0     0     0   502  0.000000000E+00  0.000000000E+00  2.455170726E+00  2.455170726E+00  0.000000000E+00  0.00000E+00  9.000E+00
       2    -1     0     0   501     0  0.000000000E+00  0.000000000E+00 -8.620426230E+02  8.620426230E+02  0.000000000E+00  0.00000E+00  9.000E+00
      24     2     1     2     0     0  1.189603352E+00 -5.223385305E+00 -6.989949778E+02  7.037240704E+02  8.127047060E+01  0.00000E+00  9.000E+00
     -11     1     3     3     0     0 -2.222489643E+01  2.436453538E+01 -1.574729072E+02  1.608890709E+02  5.109989100E-04  0.00000E+00  9.000E+00
      12     1     3     3     0     0  2.341449979E+01 -2.958792069E+01 -5.415220705E+02  5.428349995E+02  7.629394531E-06  0.00000E+00  9.000E+00
       2     1     1     2   501     0 -2.570873649E+00  4.826036339E-01 -6.705684956E+01  6.710784880E+01  0.000000000E+00  0.00000E+00  9.000E+00
      -2     1     1     2     0   502  1.381270297E+00  4.740781672E+00 -9.353562492E+01  9.366587451E+01  0.000000000E+00  0.00000E+00  9.000E+00
</event>
<event>
      7    666  1.00000E+00  3.95360E+00 -1.00000E+00  2.64561E-01
      -2    -1     0     0     0   502  0.000000000E+00  0.000000000E+00  8.631520551E+00  8.631520551E+00  0.000000000E+00  0.00000E+00  9.000E+00
       1    -1     0     0   501     0  0.000000000E+00  0.000000000E+00 -2.539027583E+02  2.539027583E+02  0.000000000E+00  0.00000E+00  9.000E+00
     -24     2     1     2     0     0 -3.158484953E+00  1.258041492E+01 -2.123560952E+02  2.271417446E+02  7.956141087E+01  0.00000E+00  9.000E+00
      11     1     3     3     0     0  2.565061313E+01  1.038155708E+01 -1.859571346E+02  1.880047515E+02  5.109989100E-04  0.00000E+00  9.000E+00
     -12     1     3     3     0     0 -2.880909808E+01  2.198857843E+00 -2.639896066E+01  3.913699314E+01  9.536743164E-07  0.00000E+00  9.000E+00
       1     1     1     2   501     0  5.645690437E-02 -7.484150130E-01 -2.489573169E+00  2.600247484E+00  0.000000000E+00  0.00000E+00  9.000E+00
      -1     1     1     2     0   502  3.102028049E+00 -1.183199991E+01 -3.042556933E+01  3.279228673E+01  0.000000000E+00  0.00000E+00  9.000E+00
</event>
<event>
      7    666  1.00000E+00  1.90710E+01 -1.00000E+00  1.68049E-01
      21    -1     0     0   502   511  0.000000000E+00  0.000000000E+00  2.760693647E+02  2.760693647E+02  0.000000000E+00  0.00000E+00  9.000E+00
       1    -1     0     0   501     0  0.000000000E+00  0.000000000E+00 -2.555745415E+02  2.555745415E+02  0.000000000E+00  0.00000E+00  9.000E+00
     -24     2     1     2     0     0 -1.893336306E+01  5.098046138E+01 -9.791467132E+01  1.378411796E+02  8.034567969E+01  0.00000E+00  9.000E+00
      11     1     3     3     0     0 -1.308973930E+01 -2.060950513E+01 -3.281893467E+01  4.090446736E+01  5.109989100E-04  0.00000E+00  9.000E+00
     -12     1     3     3     0     0 -5.843623759E+00  7.158996651E+01 -6.509573666E+01  9.693671221E+01  9.536743164E-07  0.00000E+00  9.000E+00
       2     1     1     2   502     0 -1.294000658E-01 -5.154229542E+01 -1.324987106E+02  1.421707891E+02  0.000000000E+00  0.00000E+00  9.000E+00
      21     1     1     2   501   511  1.906276312E+01  5.618340349E-01  2.509082051E+02  2.516319375E+02  0.000000000E+00  0.00000E+00  9.000E+00
</event>
<event>
      7    666  1.00000E+00  1.78890E+01 -1.00000E+00  1.70424E-01
       2    -1     0     0   501     0  0.000000000E+00  0.000000000E+00  1.625327232E+02  1.625327232E+02  0.000000000E+00  0.00000E+00  9.000E+00
      -1    -1     0     0     0   502  0.000000000E+00  0.000000000E+00 -8.220510620E+01  8.220510620E+01  0.000000000E+00  0.00000E+00  9.000E+00
      24     2     1     2     0     0  2.089312425E+01  7.522861933E+00  1.486178949E+02  1.704737968E+02  8.050416520E+01  0.00000E+00  9.000E+00
     -11     1     3     3     0     0 -2.116295438E+01 -1.827588203E+01  2.552227703E+01  3.785848818E+01  5.109989100E-04  0.00000E+00  9.000E+00
      12     1     3     3     0     0  4.205607863E+01  2.579874396E+01  1.230956179E+02  1.326153086E+02  0.000000000E+00  0.00000E+00  9.000E+00
       4     1     1     2   501     0 -1.920401925E+01 -8.308573445E+00 -3.399708177E+01  3.992027451E+01  0.000000000E+00  0.00000E+00  9.000E+00
      -4     1     1     2     0   502 -1.689105001E+00  7.857115124E-01 -3.429319614E+01  3.434375809E+01  0.000000000E+00  0.00000E+00  9.000E+00
</event>
<event>
      7    666  1.00000E+00  9.96361E+01 -1.00000E+00  1.23876E-01
       2    -1     0     0   501     0  0.000000000E+00  0.000000000E+00  3.403855858E+02  3.403855858E+02  0.000000000E+00  0.00000E+00  9.000E+00
      21    -1     0     0   502   511  0.000000000E+00  0.000000000E+00 -3.797106818E+02  3.797106818E+02  0.000000000E+00  0.00000E+00  9.000E+00
      24     2     1     2     0     0 -2.186595295E+01 -7.443773390E+00  1.014694765E+02  1.309465077E+02  7.948209589E+01  0.00000E+00  9.000E+00
     -11     1     3     3     0     0 -1.376971372E+01 -4.288007659E+01  6.782874266E+01  8.141894322E+01  5.109989100E-04  0.00000E+00  9.000E+00
      12     1     3     3     0     0 -8.096239232E+00  3.543630320E+01  3.364073384E+01  4.952756452E+01  1.719260824E-06  0.00000E+00  9.000E+00
       1     1     1     2   502     0  1.206990217E+02 -5.180966609E+00  2.002383574E+02  2.338599924E+02  0.000000000E+00  0.00000E+00  9.000E+00
      21     1     1     2   501   511 -9.883306873E+01  1.262474000E+01 -3.410329300E+02  3.552897674E+02  5.394796609E-06  0.00000E+00  9.000E+00
</event>
<event>
      7    666  1.00000E+00  9.06342E+00 -1.00000E+00  2.00766E-01
       3    -1     0     0   501     0  0.000000000E+00  0.000000000E+00  5.406806163E+01  5.406806163E+01  0.000000000E+00  0.00000E+00  9.000E+00
      21    -1     0     0   512   502  0.000000000E+00  0.000000000E+00 -1.469867457E+02  1.469867457E+02  0.000000000E+00  0.00000E+00  9.000E+00
     -24     2     1     2     0     0 -3.396912032E-01  4.845919564E+00 -6.785889815E+01  1.051018491E+02  8.011223562E+01  0.00000E+00  9.000E+00
      11     1     3     3     0     0 -2.341172386E+01  1.150370963E+01  6.565863098E+00  2.689897224E+01  5.109989100E-04  0.00000E+00  9.000E+00
     -12     1     3     3     0     0  2.307203265E+01 -6.657790068E+00 -7.442476125E+01  7.820287684E+01  9.536743164E-07  0.00000E+00  9.000E+00
      21     1     1     2   501   502  6.935818087E+00 -1.106175838E+01  3.388607512E+01  3.631437950E+01  8.259061849E-07  0.00000E+00  9.000E+00
       4     1     1     2   512     0 -6.596126883E+00  6.215838815E+00 -5.894586108E+01  5.963857880E+01  0.000000000E+00  0.00000E+00  9.000E+00
</event>
<event>
      7    666  1.00000E+00  4.24106E+00 -1.00000E+00  2.57519E-01
       2    -1     0     0   501     0  0.000000000E+00  0.000000000E+00  2.823399617E+01  2.823399617E+01  0.000000000E+00  0.00000E+00  9.000E+00
      -1    -1     0     0     0   502  0.000000000E+00  0.000000000E+00 -6.123933088E+01  6.123933088E+01  0.000000000E+00  0.00000E+00  9.000E+00
      24     2     1     2     0     0  4.843969547E+00 -1.871619550E+00 -2.047848502E+01  7.581306599E+01  7.280992807E+01  0.00000E+00  9.000E+00
     -11     1     3     3     0     0  5.911813977E+00 -2.895037484E+01 -3.439888376E+01  4.534707215E+01  5.109989100E-04  0.00000E+00  9.000E+00
      12     1     3     3     0     0 -1.067844429E+00  2.707875529E+01  1.392039875E+01  3.046599385E+01  5.591411304E-07  0.00000E+00  9.000E+00
       4     1     1     2   501     0 -7.717814233E-01  6.868489375E-01 -1.309727852E+00  1.668171177E+00  0.000000000E+00  0.00000E+00  9.000E+00
      -4     1     1     2     0   502 -4.072188124E+00  1.184770613E+00 -1.121712184E+01  1.199208989E+01  0.000000000E+00  0.00000E+00  9.000E+00
</event>
<event>
      7    666  1.00000E+00  2.53723E+00 -1.00000E+00  3.20684E-01
      -1    -1     0     0     0   502  0.000000000E+00  0.000000000E+00  1.951750743E+02  1.951750743E+02  0.000000000E+00  0.00000E+00  9.000E+00
      21    -1     0     0   501   511  0.000000000E+00  0.000000000E+00 -2.807312217E+01  2.807312217E+01  0.000000000E+00  0.00000E+00  9.000E+00
      24     2     1     2     0     0 -4.841193548E+00 -1.146202833E+01  8.130442626E+01  1.152472451E+02  8.072609574E+01  0.00000E+00  9.000E+00
     -11     1     3     3     0     0  3.066908094E+01 -1.695035402E+01  6.878569961E+01  7.719701741E+01  5.109989100E-04  0.00000E+00  9.000E+00
      12     1     3     3     0     0 -3.551027448E+01  5.488325688E+00  1.251872666E+01  3.805022773E+01  1.039242493E-06  0.00000E+00  9.000E+00
      21     1     1     2   501   502  4.778833884E+00  8.925559890E+00  9.648586435E+01  9.701559098E+01  0.000000000E+00  0.00000E+00  9.000E+00
      -4     1     1     2     0   511  6.235966372E-02  2.536468442E+00 -1.068833853E+01  1.098536032E+01  0.000000000E+00  0.00000E+00  9.000E+00
</event>
<event>
      7    666  1.00000E+00  8.72953E+00 -1.00000E+00  2.02773E-01
       1    -1     0     0   501     0  0.000000000E+00  0.000000000E+00  8.551856054E+01  8.551856054E+01  0.000000000E+00  0.00000E+00  9.000E+00
      -2    -1     0     0     0   502  0.000000000E+00  0.000000000E+00 -3.249283153E+01  3.249283153E+01  0.000000000E+00  0.00000E+00  9.000E+00
     -24     2     1     2     0     0  2.770108019E+00 -1.524350739E+00  3.511221674E+01  9.500992267E+01  8.822709617E+01  0.00000E+00  9.000E+00
      11     1     3     3     0     0 -7.660028427E+00 -4.101249330E+01  3.453962547E+01  5.416351512E+01  5.109989100E-04  0.00000E+00  9.000E+00
     -12     1     3     3     0     0  1.043013645E+01  3.948814256E+01  5.725912686E-01  4.084640755E+01  2.558273779E-07  0.00000E+00  9.000E+00
      21     1     1     2   511   502 -7.306834887E+00  1.756357598E+00  1.667937138E+01  1.829415365E+01  2.384185791E-07  0.00000E+00  9.000E+00
      21     1     1     2   501   511  4.536726868E+00 -2.320068587E-01  1.234140895E+00  4.707315754E+00  1.737759082E-07  0.00000E+00  9.000E+00
</event>
<event>
      7    666  1.00000E+00  1.41388E+01 -1.00000E+00  1.79788E-01
      21    -1     0     0   502   511  0.000000000E+00  0.000000000E+00  6.855889280E+00  6.855889280E+00  0.000000000E+00  0.00000E+00  9.000E+00
       1    -1     0     0   501     0  0.000000000E+00  0.000000000E+00 -6.120558445E+02  6.120558445E+02  0.000000000E+00  0.00000E+00  9.000E+00
     -24     2     1     2     0     0  9.304006610E+00  2.165355928E+00 -5.187776998E+02  5.262196055E+02  8.766708662E+01  0.00000E+00  9.000E+00
      11     1     3     3     0     0  4.526100718E+01  1.361496121E+01 -3.560731053E+02  3.591963005E+02  5.109989100E-04  0.00000E+00  9.000E+00
     -12     1     3     3     0     0 -3.595700057E+01 -1.144960528E+01 -1.627045945E+02  1.670233050E+02  1.907348633E-06  0.00000E+00  9.000E+00
       2     1     1     2   502     0 -1.643527925E+01  1.004330237E+01 -4.605695031E+01  4.992222950E+01  0.000000000E+00  0.00000E+00  9.000E+00
      21     1     1     2   501   511  7.131272636E+00 -1.220865830E+01 -4.036530514E+01  4.276989883E+01  9.536743164E-07  0.00000E+00  9.000E+00
</event>
<event>
      7    666  1.00000E+00  7.04304E+00 -1.00000E+00  2.15107E-01
       2    -1     0     0   501     0  0.000000000E+00  0.000000000E+00  3.499647550E+01  3.499647550E+01  0.000000000E+00  0.00000E+00  9.000E+00
      21    -1     0     0   502   501  0.000000000E+00  0.000000000E+00 -8.379925143E+01  8.379925143E+01  0.000000000E+00  0.00000E+00  9.000E+00
      24     2     1     2     0     0 -5.635350313E+00  8.251752208E+00 -1.756140033E+01  8.380390490E+01  8.133168575E+01  0.00000E+00  9.000E+00
     -11     1     3     3     0     0 -4.350610377E+01  6.524188166E+00 -8.118254763E+00  4.473535690E+01  5.109989100E-04  0.00000E+00  9.000E+00
      12     1     3     3     0     0  3.787075346E+01  1.727564043E+00 -9.443145566E+00  3.906854800E+01  4.298152060E-07  0.00000E+00  9.000E+00
       1     1     1     2   511     0  4.400830202E+00 -1.144830849E+01 -2.298662729E+01  2.605409963E+01  0.000000000E+00  0.00000E+00  9.000E+00
      21     1     1     2   502   511  1.234520111E+00  3.196556282E+00 -8.254748315E+00  8.937722401E+00  1.192092896E-07  0.00000E+00  9.000E+00
</event>
<event>
      7    666  1.00000E+00  1.21273E+01 -1.00000E+00  1.86495E-01
       3    -1     0     0   501     0  0.000000000E+00  0.000000000E+00  3.896470014E+01  3.896470014E+01  0.000000000E+00  0.00000E+00  9.000E+00
      21    -1     0     0   502   501  0.000000000E+00  0.000000000E+00 -5.375690063E+01  5.375690063E+01  0.000000000E+00  0.00000E+00  9.000E+00
     -24     2     1     2     0     0 -2.250531797E+00 -3.604257256E-01 -1.007243313E+01  8.149307008E+01  8.083607958E+01  0.00000E+00  9.000E+00
      11     1     3     3     0     0 -1.164672723E+01 -9.756566688E+00  3.304715652E+01  3.637239892E+01  5.109989100E-04  0.00000E+00  9.000E+00
     -12     1     3     3     0     0  9.396195437E+00  9.396140962E+00 -4.311958966E+01  4.512067116E+01  0.000000000E+00  0.00000E+00  9.000E+00
       4     1     1     2   511     0  2.269567520E-01  3.746806849E+00  1.350321549E+00  3.989165228E+00  0.000000000E+00  0.00000E+00  9.000E+00
      21     1     1     2   502   511  2.023575045E+00 -3.386381124E+00 -6.070088908E+00  7.239365471E+00  4.539354507E-07  0.00000E+00  9.000E+00
</event>
<event>
      7    666  1.00000E+00  3.66270E+00 -1.00000E+00  2.72707E-01
       2    -1     0     0   501     0  0.000000000E+00  0.000000000E+00  5.474186931E+02  5.474186931E+02  0.000000000E+00  0.00000E+00  9.000E+00
      21    -1     0     0   502   511  0.000000000E+00  0.000000000E+00 -3.528371745E+01  3.528371745E+01  0.000000000E+00  0.00000E+00  9.000E+00
      24     2     1     2     0     0 -7.579960637E-01 -5.679939374E+00  5.398800802E+02  5.461103533E+02  8.205596052E+01  0.00000E+00  9.000E+00
     -11     1     3     3     0     0 -2.352630597E+01 -2.548479892E+01  1.139240575E+02  1.190867454E+02  5.109989100E-04  0.00000E+00  9.000E+00
      12     1     3     3     0     0  2.276830990E+01  1.980485955E+01  4.259560227E+02  4.270236079E+02  1.206313194E-05  0.00000E+00  9.000E+00
       1     1     1     2   502     0  4.134163217E+00  4.259777600E+00  2.269256104E+00  6.355040045E+00  0.000000000E+00  0.00000E+00  9.000E+00
      21     1     1     2   501   511 -3.376167153E+00  1.420161774E+00 -3.001436068E+01  3.023701723E+01  1.066240300E-06  0.00000E+00  9.000E+00
</event>
<event>
      7    666  1.00000E+00  4.05260E+01 -1.00000E+00  1.44458E-01
      21    -1     0     0   502   511  0.000000000E+00  0.000000000E+00  1.053574956E+01  1.053574956E+01  0.000000000E+00  0.00000E+00  9.000E+00
       2    -1     0     0   501     0  0.000000000E+00  0.000000000E+00 -6.428292038E+02  6.428292038E+02  0.000000000E+00  0.00000E+00  9.000E+00
      24     2     1     2     0     0  3.205293891E+01  4.452935198E+00 -3.592213373E+02  3.692400920E+02  7.906362543E+01  0.00000E+00  9.000E+00
     -11     1     3     3     0     0  5.794990624E+01 -3.607183494E+00 -2.314330282E+02  2.386052178E+02  5.109989100E-04  0.00000E+00  9.000E+00
      12     1     3     3     0     0 -2.589696733E+01  8.060118693E+00 -1.277883091E+02  1.306348742E+02  3.015782986E-06  0.00000E+00  9.000E+00
       1     1     1     2   502     0 -1.368698313E+01  3.167247212E+01 -1.680374190E+02  1.715431525E+02  0.000000000E+00  0.00000E+00  9.000E+00
      21     1     1     2   501   511 -1.836595578E+01 -3.612540732E+01 -1.050346979E+02  1.125817088E+02  1.907348633E-06  0.00000E+00  9.000E+00
</event>
<event>
      7    666  1.00000E+00  3.37705E+00 -1.00000E+00  2.81965E-01
      -2    -1     0     0     0   502  0.000000000E+00  0.000000000E+00  5.048731121E+00  5.048731121E+00  0.000000000E+00  0.00000E+00  9.000E+00
       1    -1     0     0   501     0  0.000000000E+00  0.000000000E+00 -9.287362438E+02  9.287362438E+02  0.000000000E+00  0.00000E+00  9.000E+00
     -24     2     1     2     0     0  6.637120537E+00  8.708039991E+00 -3.264087806E+02  3.364046875E+02  8.065693045E+01  0.00000E+00  9.000E+00
      11     1     3     3     0     0 -9.955633359E+00  6.260284018E-01 -3.140142799E+02  3.141726827E+02  5.109989100E-04  0.00000E+00  9.000E+00
     -12     1     3     3     0     0  1.659275390E+01  8.082011589E+00 -1.239450064E+01  2.223200484E+01  1.066240300E-06  0.00000E+00  9.000E+00
       3     1     1     2   501     0 -7.034216976E-01 -6.071162657E-01 -6.753210785E+01  6.753850001E+01  0.000000000E+00  0.00000E+00  9.000E+00
      -3     1     1     2     0   502 -5.933698839E+00 -8.100923725E+00 -5.297466242E+02  5.298417874E+02  0.000000000E+00  0.00000E+00  9.000E+00
</event>
<event>
      7    666  1.00000E+00  4.29433E+02 -1.00000E+00  1.00751E-01
      -1    -1     0     0     0   502  0.000000000E+00  0.000000000E+00  1.333958965E+02  1.333958965E+02  0.000000000E+00  0.00000E+00  9.000E+00
      21    -1     0     0   502   501  0.000000000E+00  0.000000000E+00 -4.534414242E+02  4.534414242E+02  0.000000000E+00  0.00000E+00  9.000E+00
      24     2     1     2     0     0  1.298941462E+00  1.085558408E+01  1.155190123E+02  1.407549509E+02  7.967297563E+01  0.00000E+00  9.000E+00
     -11     1     3     3     0     0 -1.624672459E+01  9.532010339E+00  1.208972135E+02  1.223558397E+02  5.109989100E-04  0.00000E+00  9.000E+00
      12     1     3     3     0     0  1.754566605E+01  1.323573738E+00 -5.378201197E+00  1.839911119E+01  8.215933294E-07  0.00000E+00  9.000E+00
      -2     1     1     2     0   511  7.505438721E+00 -5.232731830E+00  1.169036887E+00  9.223867954E+00  0.000000000E+00  0.00000E+00  9.000E+00
      21     1     1     2   511   501 -8.804380183E+00 -5.622852247E+00 -4.367335768E+02  4.368585019E+02  3.003695631E-05  0.00000E+00  9.000E+00
</event>
<event>
      7    666  1.00000E+00  6.38166E+00 -1.00000E+00  2.21316E-01
       1    -1     0     0   501     0  0.000000000E+00  0.000000000E+00  1.385849687E+02  1.385849687E+02  0.000000000E+00  0.00000E+00  9.000E+00
      -1    -1     0     0     0   501  0.000000000E+00  0.000000000E+00 -2.786124876E+01  2.786124876E+01  0.000000000E+00  0.00000E+00  9.000E+00
     -24     2     1     2     0     0 -3.726505378E-01  5.227457849E+00  1.172847946E+02  1.417731454E+02  7.947601227E+01  0.00000E+00  9.000E+00
      11     1     3     3     0     0  2.142248569E+01 -2.860065317E+01  7.672152027E+01  8.463516956E+01  5.109989100E-04  0.00000E+00  9.000E+00
     -12     1     3     3     0     0 -2.179513622E+01  3.382811102E+01  4.056327436E+01  5.713797586E+01  4.768371582E-07  0.00000E+00  9.000E+00
       2     1     1     2   502     0  3.449698468E+00 -1.081828889E+01  4.245629979E+00  1.212275414E+01  0.000000000E+00  0.00000E+00  9.000E+00
      -1     1     1     2     0   502 -3.077047930E+00  5.590831039E+00 -1.080670462E+01  1.255031794E+01  0.000000000E+00  0.00000E+00  9.000E+00
</event>
<event>
      7    666  1.00000E+00  4.72992E+00 -1.00000E+00  2.47325E-01
      21    -1     0     0   512   501  0.000000000E+00  0.000000000E+00  2.831421849E+02  2.831421849E+02  0.000000000E+00  0.00000E+00  9.000E+00
       3    -1     0     0   501     0  0.000000000E+00  0.000000000E+00 -8.037719741E+01  8.037719741E+01  0.000000000E+00  0.00000E+00  9.000E+00
     -24     2     1     2     0     0 -6.636681885E+01  1.520926657E+01 -3.791587743E+01  1.105329059E+02  7.838388289E+01  0.00000E+00  9.000E+00
      11     1     3     3     0     0 -1.689663088E+01  1.068427329E+01 -5.458774829E+01  5.813322711E+01  5.109989100E-04  0.00000E+00  9.000E+00
     -12     1     3     3     0     0 -4.947018797E+01  4.524993278E+00  1.667187086E+01  5.239967882E+01  2.105655877E-06  0.00000E+00  9.000E+00
       4     1     1     2   502     0  7.091244774E+01 -1.651671343E+01  2.311541309E+02  2.423501791E+02  0.000000000E+00  0.00000E+00  9.000E+00
      21     1     1     2   512   502 -4.545628896E+00  1.307446862E+00  9.526734022E+00  1.063629731E+01  2.064765462E-07  0.00000E+00  9.000E+00
</event>
<event>
      7    666  1.00000E+00  5.48586E+01 -1.00000E+00  1.36788E-01
       2    -1     0     0   501     0  0.000000000E+00  0.000000000E+00  6.902267211E+02  6.902267211E+02  0.000000000E+00  0.00000E+00  9.000E+00
      21    -1     0     0   502   501  0.000000000E+00  0.000000000E+00 -9.886103896E+00  9.886103896E+00  0.000000000E+00  0.00000E+00  9.000E+00
      24     2     1     2     0     0  3.065665038E+00  6.135522827E+00  6.726615619E+02  6.780297982E+02  8.487512838E+01  0.00000E+00  9.000E+00
     -11     1     3     3     0     0  3.122263834E+01  6.359704615E+00  1.064032354E+02  1.110718123E+02  5.109989100E-04  0.00000E+00  9.000E+00
      12     1     3     3     0     0 -2.815697330E+01 -2.241817881E-01  5.662583265E+02  5.669579859E+02  0.000000000E+00  0.00000E+00  9.000E+00
       1     1     1     2   511     0  5.264085377E+00 -1.755955588E+00  1.082145954E+01  1.216133058E+01  0.000000000E+00  0.00000E+00  9.000E+00
      21     1     1     2   502   511 -8.329750415E+00 -4.379567239E+00 -3.142404262E+00  9.921696212E+00  1.878728570E-06  0.00000E+00  9.000E+00
</event>
<event>
      7    666  1.00000E+00  2.96666E+00 -1.00000E+00  2.98208E-01
      -1    -1     0     0     0   511  0.000000000E+00  0.000000000E+00  6.053790920E+00  6.053790920E+00  0.000000000E+00  0.00000E+00  9.000E+00
      21    -1     0     0   502   501  0.000000000E+00  0.000000000E+00 -3.353651848E+02  3.353651848E+02  0.000000000E+00  0.00000E+00  9.000E+00
      24     2     1     2     0     0 -1.029068437E+00  6.502454904E+00 -3.113219438E+02  3.216441322E+02  8.056211385E+01  0.00000E+00  9.000E+00
     -11     1     3     3     0     0 -2.989910719E+00  4.225606913E+01 -1.270725855E+02  1.339475902E+02  5.109989100E-04  0.00000E+00  9.000E+00
      12     1     3     3     0     0  1.960842282E+00 -3.575361423E+01 -1.842493583E+02  1.876965420E+02  4.672030912E-06  0.00000E+00  9.000E+00
      -2     1     1     2     0   501 -1.477082840E+00 -4.914911961E+00 -9.760992590E+00  1.102792409E+01  0.000000000E+00  0.00000E+00  9.000E+00
      21     1     1     2   502   511  2.506151277E+00 -1.587542943E+00 -8.228457470E+00  8.746919409E+00  2.064765462E-07  0.00000E+00  9.000E+00
</event>
<event>
      7    666  1.00000E+00  1.37006E+01 -1.00000E+00  1.81123E-01
       1    -1     0     0   501     0  0.000000000E+00  0.000000000E+00  3.541461959E+02  3.541461959E+02  0.000000000E+00  0.00000E+00  9.000E+00
      21    -1     0     0   502   512  0.000000000E+00  0.000000000E+00 -3.935190968E+01  3.935190968E+01  0.000000000E+00  0.00000E+00  9.000E+00
     -24     2     1     2     0     0  5.399538500E+00 -5.127895802E+00  3.277738363E+02  3.371852176E+02  7.875743042E+01  0.00000E+00  9.000E+00
      11     1     3     3     0     0  3.513272211E+01 -1.116753250E+01  2.640057420E+02  2.665671655E+02  5.109989100E-04  0.00000E+00  9.000E+00
     -12     1     3     3     0     0 -2.973318361E+01  6.039636702E+00  6.376809440E+01  7.061805210E+01  1.507891493E-06  0.00000E+00  9.000E+00
       2     1     1     2   502     0  7.089734436E+00 -5.045520114E-01  1.966489595E+01  2.090997465E+01  0.000000000E+00  0.00000E+00  9.000E+00
      21     1     1     2   501   512 -1.248927294E+01  5.632447813E+00 -3.264444612E+01  3.540291329E+01  6.743495762E-07  0.00000E+00  9.000E+00
</event>
<event>
      7    666  1.00000E+00  1.29762E+01 -1.00000E+00  1.83475E-01
      -5    -1     0     0     0   501  0.000000000E+00  0.000000000E+00  1.174137258E+01  1.174137258E+01  0.000000000E+00  0.00000E+00  9.000E+00
       2    -1     0     0   501     0  0.000000000E+00  0.000000000E+00 -5.032787658E+02  5.032787658E+02  0.000000000E+00  0.00000E+00  9.000E+00
      24     2     1     2     0     0 -1.985684863E+01 -6.689070576E+00 -4.765952957E+02  4.836527548E+02  7.961076122E+01  0.00000E+00  9.000E+00
     -11     1     3     3     0     0 -3.955842327E+01 -5.544013786E+00 -1.192382751E+02  1.257512274E+02  5.109989100E-04  0.00000E+00  9.000E+00
      12     1     3     3     0     0  1.970157464E+01 -1.145056791E+00 -3.573570206E+02  3.579015274E+02  5.394796609E-06  0.00000E+00  9.000E+00
       1     1     1     2   502     0  1.293986833E+01 -4.289817768E+00 -1.176688313E+01  1.800839436E+01  0.000000000E+00  0.00000E+00  9.000E+00
      -5     1     1     2     0   502  6.916980301E+00  1.097888834E+01 -3.175214438E+00  1.335898920E+01  0.000000000E+00  0.00000E+00  9.000E+00
</event>
<event>
      7    666  1.00000E+00  5.01524E+01 -1.00000E+00  1.38971E-01
       2    -1     0     0   501     0  0.000000000E+00  0.000000000E+00  8.046672716E+02  8.046672716E+02  0.000000000E+00  0.00000E+00  9.000E+00
      21    -1     0     0   502   501  0.000000000E+00  0.000000000E+00 -1.303979056E+01  1.303979056E+01  0.000000000E+00  0.00000E+00  9.000E+00
      24     2     1     2     0     0 -1.305771585E+01 -7.871745222E+00  7.951426510E+02  7.993010676E+02  7.998683007E+01  0.00000E+00  9.000E+00
     -11     1     3     3     0     0  6.757949740E+00  3.183096269E+01  2.131830834E+02  2.156522829E+02  5.109989100E-04  0.00000E+00  9.000E+00
      12     1     3     3     0     0 -1.981566559E+01 -3.970270791E+01  5.819595676E+02  5.836487848E+02  7.629394531E-06  0.00000E+00  9.000E+00
       1     1     1     2   511     0 -9.317877791E-01  1.350859974E+00  1.452593258E+00  2.191592642E+00  0.000000000E+00  0.00000E+00  9.000E+00
      21     1     1     2   502   511  1.398950363E+01  6.520885248E+00 -4.967763233E+00  1.621440186E+01  4.283662703E-06  0.00000E+00  9.000E+00
</event>
<event>
      7    666  1.00000E+00  4.28922E+00 -1.00000E+00  2.56423E-01
       3    -1     0     0   501     0  0.000000000E+00  0.000000000E+00  1.966415262E+01  1.966415262E+01  0.000000000E+00  0.00000E+00  9.000E+00
      21    -1     0     0   502   512  0.000000000E+00  0.000000000E+00 -1.783601692E+02  1.783601692E+02  0.000000000E+00  0.00000E+00  9.000E+00
     -24     2     1     2     0     0 -1.484488645E+01  4.580045990E+00 -6.787390427E+01  1.050840591E+02  7.870479731E+01  0.00000E+00  9.000E+00
      11     1     3     3     0     0 -7.470230691E+00  1.975059214E+01  1.142650937E+01  2.400948465E+01  5.109989100E-04  0.00000E+00  9.000E+00
     -12     1     3     3     0     0 -7.374655760E+00 -1.517054615E+01 -7.930041364E+01  8.107457445E+01  9.536743164E-07  0.00000E+00  9.000E+00
       4     1     1     2   502     0  1.125225373E+01 -6.923207059E+00 -8.276274648E+01  8.381059727E+01  0.000000000E+00  0.00000E+00  9.000E+00
      21     1     1     2   501   512  3.592632721E+00  2.343161069E+00 -8.059365839E+00  9.129665458E+00  1.685873940E-07  0.00000E+00  9.000E+00
</event>
<event>
      7    666  1.00000E+00  1.20865E+01 -1.00000E+00  1.86648E-01
      21    -1     0     0   511   502  0.000000000E+00  0.000000000E+00  1.177853374E+02  1.177853374E+02  0.000000000E+00  0.00000E+00  9.000E+00
       3    -1     0     0   501     0  0.000000000E+00  0.000000000E+00 -9.488608850E+01  9.488608850E+01  0.000000000E+00  0.00000E+00  9.000E+00
     -24     2     1     2     0     0 -4.491114828E+00  3.384140804E+01  2.885605563E+01  8.991174240E+01  7.801306598E+01  0.00000E+00  9.000E+00
      11     1     3     3     0     0 -3.093331331E+01 -8.926697794E+00  5.302748973E-01  3.219995338E+01  5.109989100E-04  0.00000E+00  9.000E+00
     -12     1     3     3     0     0  2.644219849E+01  4.276810584E+01  2.832578073E+01  5.771178902E+01  1.118282261E-06  0.00000E+00  9.000E+00
      21     1     1     2   501   502  1.568465911E+01 -2.928192124E+01 -5.935102027E+01  6.801457968E+01  1.907348633E-06  0.00000E+00  9.000E+00
       4     1     1     2   511     0 -1.119354428E+01 -4.559486799E+00  5.339421350E+01  5.474510379E+01  0.000000000E+00  0.00000E+00  9.000E+00
</event>
<event>
      7    666  1.00000E+00  3.08658E+00 -1.00000E+00  2.93033E-01
      21    -1     0     0   502   501  0.000000000E+00  0.000000000E+00  2.652214364E+00  2.652214364E+00  0.000000000E+00  0.00000E+00  9.000E+00
       2    -1     0     0   501     0  0.000000000E+00  0.000000000E+00 -1.560795608E+03  1.560795608E+03  0.000000000E+00  0.00000E+00  9.000E+00
      24     2     1     2     0     0  2.524203406E+01 -2.468560263E+01 -8.863634287E+02  8.907009917E+02  8.038401281E+01  0.00000E+00  9.000E+00
     -11     1     3     3     0     0  2.457015487E+01 -5.180532542E+01 -7.039793290E+02  7.063103991E+02  5.109989100E-04  0.00000E+00  9.000E+00
      12     1     3     3     0     0  6.718791840E-01  2.711972279E+01 -1.823840997E+02  1.843905926E+02  3.814697266E-06  0.00000E+00  9.000E+00
       1     1     1     2   511     0 -2.092070768E+01  2.057201030E+01 -6.010323715E+02  6.017481161E+02  0.000000000E+00  0.00000E+00  9.000E+00
      21     1     1     2   502   511 -4.321326382E+00  4.113592333E+00 -7.074759353E+01  7.099871473E+01  9.536743164E-07  0.00000E+00  9.000E+00
</event>
<event>
      7    666  1.00000E+00  5.16487E+00 -1.00000E+00  2.35994E-01
       1    -1     0     0   501     0  0.000000000E+00  0.000000000E+00  1.225941434E+03  1.225941434E+03  0.000000000E+00  0.00000E+00  9.000E+00
      -2    -1     0     0     0   502  0.000000000E+00  0.000000000E+00 -3.646230883E+00  3.646230883E+00  0.000000000E+00  0.00000E+00  9.000E+00
     -24     2     1     2     0     0 -3.968444049E+00  5.810928358E+00  4.629024218E+02  4.700247826E+02  8.121039765E+01  0.00000E+00  9.000E+00
      11     1     3     3     0     0 -1.386556355E+01 -1.593981995E+01  4.229058619E+02  4.234332293E+02  5.109989100E-04  0.00000E+00  9.000E+00
     -12     1     3     3     0     0  9.897119496E+00  2.175074831E+01  3.999656001E+01  4.659155330E+01  2.023048729E-06  0.00000E+00  9.000E+00
      21     1     1     2   501   511 -1.015057075E-01 -3.996546815E+00  6.968862492E+02  6.968977163E+02  7.629394531E-06  0.00000E+00  9.000E+00
      21     1     1     2   511   502  4.069949756E+00 -1.814381543E+00  6.250653240E+01  6.266516627E+01  9.536743164E-07  0.00000E+00  9.000E+00
</event>
<event>
      7    666  1.00000E+00  1.34116E+01 -1.00000E+00  1.82039E-01
       2    -1     0     0   501     0  0.000000000E+00  0.000000000E+00  3.126603880E+02  3.126603880E+02  0.000000000E+00  0.00000E+00  9.000E+00
      -1    -1     0     0     0   502  0.000000000E+00  0.000000000E+00 -7.650016578E+00  7.650016578E+00  0.000000000E+00  0.00000E+00  9.000E+00
      24     2     1     2     0     0 -8.292250107E+00 -4.704437517E+00  2.068669335E+02  2.216035602E+02  7.888800015E+01  0.00000E+00  9.000E+00
     -11     1     3     3     0     0 -8.068495461E+00 -3.765783725E+01  6.162069574E+01  7.266583426E+01  5.109989100E-04  0.00000E+00  9.000E+00
      12     1     3     3     0     0 -2.237546465E-01  3.295339973E+01  1.452462378E+02  1.489377259E+02  1.907348633E-06  0.00000E+00  9.000E+00
      21     1     1     2   511   502  4.246565111E-01  1.536282490E+00  7.501929111E+00  7.669383119E+00  0.000000000E+00  0.00000E+00  9.000E+00
      21     1     1     2   501   511  7.867593596E+00  3.168155027E+00  9.064150881E+01  9.103746127E+01  1.907348633E-06  0.00000E+00  9.000E+00
</event>
<event>
      7    666  1.00000E+00  2.90799E+01 -1.00000E+00  1.53950E-01
      21    -1     0     0   511   502  0.000000000E+00  0.000000000E+00  2.415242596E+02  2.415242596E+02  0.000000000E+00  0.00000E+00  9.000E+00
       2    -1     0     0   501     0  0.000000000E+00  0.000000000E+00 -4.603770155E+01  4.603770155E+01  0.000000000E+00  0.00000E+00  9.000E+00
      24     2     1     2     0     0 -1.620447254E+01 -1.141615782E+00  2.118771469E+00  8.169326353E+01  8.003381721E+01  0.00000E+00  9.000E+00
     -11     1     3     3     0     0 -2.648474490E+01 -3.046908607E+01  2.081982008E+01  4.542325205E+01  5.109989100E-04  0.00000E+00  9.000E+00
      12     1     3     3     0     0  1.028027236E+01  2.932747029E+01 -1.870104861E+01  3.627001148E+01  1.430511475E-06  0.00000E+00  9.000E+00
      21     1     1     2   501   502 -4.132044405E-01 -2.272243750E+01  1.600068046E+02  1.616126772E+02  4.264961200E-06  0.00000E+00  9.000E+00
       1     1     1     2   511     0  1.661767698E+01  2.386405328E+01  3.336098196E+01  4.425602043E+01  0.000000000E+00  0.00000E+00  9.000E+00
</event>
<event>
      7    666  1.00000E+00  8.91142E+01 -1.00000E+00  1.26098E-01
      21    -1     0     0   502   501  0.000000000E+00  0.000000000E+00  8.836784315E+00  8.836784315E+00  0.000000000E+00  0.00000E+00  9.000E+00
       2    -1     0     0   501     0  0.000000000E+00  0.000000000E+00 -6.074992565E+02  6.074992565E+02  0.000000000E+00  0.00000E+00  9.000E+00
      24     2     1     2     0     0 -4.259573926E+00  2.672590005E+00 -5.825757954E+02  5.880628143E+02  7.998768360E+01  0.00000E+00  9.000E+00
     -11     1     3     3     0     0 -2.399490563E+01  2.769915308E+01 -1.538687178E+02  1.581726300E+02  5.109989100E-04  0.00000E+00  9.000E+00
      12     1     3     3     0     0  1.973533171E+01 -2.502656307E+01 -4.287070776E+02  4.298901843E+02  9.344061824E-06  0.00000E+00  9.000E+00
       1     1     1     2   512     0  2.505809081E+00  5.848601776E-01 -2.153466102E+01  2.168784834E+01  0.000000000E+00  0.00000E+00  9.000E+00
      21     1     1     2   502   512  1.753764845E+00 -3.257450182E+00  5.447984233E+00  6.585378123E+00  1.234550189E-06  0.00000E+00  9.000E+00
</event>
<event>
      7    666  1.00000E+00  3.26659E+00 -1.00000E+00  2.85953E-01
       4    -1     0     0   501     0  0.000000000E+00  0.000000000E+00  3.058981377E+01  3.058981377E+01  0.000000000E+00  0.00000E+00  9.000E+00
      21    -1     0     0   511   501  0.000000000E+00  0.000000000E+00 -1.484834644E+02  1.484834644E+02  0.000000000E+00  0.00000E+00  9.000E+00
      24     2     1     2     0     0  1.577672165E+00  4.068950148E+00 -2.329899990E+01  8.380086453E+01  8.037845541E+01  0.00000E+00  9.000E+00
     -11     1     3     3     0     0 -3.604092706E+01 -6.906859808E+00 -2.528355161E+01  4.456356267E+01  5.109989100E-04  0.00000E+00  9.000E+00
      12     1     3     3     0     0  3.761859923E+01  1.097580996E+01  1.984551700E+00  3.923730186E+01  8.161702119E-07  0.00000E+00  9.000E+00
       3     1     1     2   502     0  9.541745044E-01 -6.133018294E+00 -3.222613789E+01  3.281841443E+01  0.000000000E+00  0.00000E+00  9.000E+00
      21     1     1     2   511   502 -2.531846670E+00  2.064068146E+00 -6.236851286E+01  6.245399925E+01  6.743495762E-07  0.00000E+00  9.000E+00
</event>
<event>
      7    666  1.00000E+00  2.57505E+00 -1.00000E+00  3.18404E-01
       2    -1     0     0   501     0  0.000000000E+00  0.000000000E+00  4.085669447E+01  4.085669447E+01  0.000000000E+00  0.00000E+00  9.000E+00
      21    -1     0     0   511   502  0.000000000E+00  0.000000000E+00 -1.002993063E+02  1.002993063E+02  0.000000000E+00  0.00000E+00  9.000E+00
      24     2     1     2     0     0 -7.930898821E-01  9.916527666E+00 -8.704832159E+00  8.829278200E+01  8.729762161E+01  0.00000E+00  9.000E+00
     -11     1     3     3     0     0 -9.584345859E+00  1.279599532E+01 -4.660971691E+01  4.927537815E+01  5.109989100E-04  0.00000E+00  9.000E+00
      12     1     3     3     0     0  8.791255977E+00 -2.879467653E+00  3.790488475E+01  3.901740385E+01  6.743495762E-07  0.00000E+00  9.000E+00
      21     1     1     2   501   502 -2.662228675E-01 -7.569460566E+00 -1.305882042E+01  1.509637038E+01  4.768371582E-07  0.00000E+00  9.000E+00
       1     1     1     2   511     0  1.059312750E+00 -2.347067100E+00 -3.767895924E+01  3.776684838E+01  0.000000000E+00  0.00000E+00  9.000E+00
</event>
<event>
      7    666  1.00000E+00  3.38304E+01 -1.00000E+00  1.49468E-01
       2    -1     0     0   501     0  0.000000000E+00  0.000000000E+00  7.134772868E+01  7.134772868E+01  0.000000000E+00  0.00000E+00  9.000E+00
      21    -1     0     0   511   501  0.000000000E+00  0.000000000E+00 -4.190916048E+02  4.190916048E+02  0.000000000E+00  0.00000E+00  9.000E+00
      24     2     1     2     0     0 -4.632563699E+01 -2.110511158E+01  2.187483603E+00  9.334563118E+01  7.821209241E+01  0.00000E+00  9.000E+00
     -11     1     3     3     0     0  1.375943164E+01  1.664870167E+01 -4.523622473E+00  2.206726958E+01  5.109989100E-04  0.00000E+00  9.000E+00
      12     1     3     3     0     0 -6.008506863E+01 -3.775381325E+01  6.711106076E+00  7.127836160E+01  4.380028980E-07  0.00000E+00  9.000E+00
       1     1     1     2   502     0  1.313403805E+01  2.764847347E+01  1.251703887E+01  3.306988513E+01  0.000000000E+00  0.00000E+00  9.000E+00
      21     1     1     2   511   502  3.319159894E+01 -6.543361882E+00 -3.624483986E+02  3.640238172E+02  5.394796609E-06  0.00000E+00  9.000E+00
</event>
<event>
      7    666  1.00000E+00  2.75453E+00 -1.00000E+00  3.08439E-01
       2    -1     0     0   501     0  0.000000000E+00  0.000000000E+00  4.165644978E+02  4.165644978E+02  0.000000000E+00  0.00000E+00  9.000E+00
      21    -1     0     0   511   502  0.000000000E+00  0.000000000E+00 -2.154557759E+01  2.154557759E+01  0.000000000E+00  0.00000E+00  9.000E+00
      24     2     1     2     0     0  3.968147928E+00 -5.464931835E+00  3.586094630E+02  3.676390122E+02  8.069748856E+01  0.00000E+00  9.000E+00
     -11     1     3     3     0     0  1.540688735E+01  1.978964878E+01  3.619643373E+01  4.403616913E+01  5.109989100E-04  0.00000E+00  9.000E+00
      12     1     3     3     0     0 -1.143873942E+01 -2.525458061E+01  3.224130292E+02  3.236028431E+02  3.814697266E-06  0.00000E+00  9.000E+00
      21     1     1     2   501   502 -5.662033992E+00  3.292787989E+00  5.312643014E+01  5.352867140E+01  6.743495762E-07  0.00000E+00  9.000E+00
       1     1     1     2   511     0  1.693886064E+00  2.172143846E+00 -1.671697288E+01  1.694239184E+01  0.000000000E+00  0.00000E+00  9.000E+00
</event>
<event>
      7    666  1.00000E+00  1.62003E+01 -1.00000E+00  1.74245E-01
       2    -1     0     0   501     0  0.000000000E+00  0.000000000E+00  1.265363164E+02  1.265363164E+02  0.000000000E+00  0.00000E+00  9.000E+00
      -1    -1     0     0     0   511  0.000000000E+00  0.000000000E+00 -4.229513402E+01  4.229513402E+01  0.000000000E+00  0.00000E+00  9.000E+00
      24     2     1     2     0     0  1.983930482E+01 -1.952470748E+01  2.817059398E+01  9.260911830E+01  8.371412192E+01  0.00000E+00  9.000E+00
     -11     1     3     3     0     0  1.303825561E+01 -9.611358036E+00 -2.952387950E+01  3.367541795E+01  5.109989100E-04  0.00000E+00  9.000E+00
      12     1     3     3     0     0  6.801049213E+00 -9.913349446E+00  5.769447348E+01  5.893370036E+01  0.000000000E+00  0.00000E+00  9.000E+00
      21     1     1     2   501   502 -7.793394824E+00  8.692143486E+00  5.866528536E+01  5.981560054E+01  0.000000000E+00  0.00000E+00  9.000E+00
      21     1     1     2   502   511 -1.204591000E+01  1.083256400E+01 -2.594696924E+00  1.640673162E+01  2.457562462E-07  0.00000E+00  9.000E+00
</event>
<event>
      7    666  1.00000E+00  1.28476E+01 -1.00000E+00  1.83913E-01
      -1    -1     0     0     0   502  0.000000000E+00  0.000000000E+00  4.508877553E+01  4.508877553E+01  0.000000000E+00  0.00000E+00  9.000E+00
      -1    -1     0     0     0   501  0.000000000E+00  0.000000000E+00 -9.396994806E+01  9.396994806E+01  0.000000000E+00  0.00000E+00  9.000E+00
      24     2     1     2     0     0  2.285807905E-01 -9.392153638E+00  3.472818170E-02  7.712407106E+01  7.654969845E+01  0.00000E+00  9.000E+00
     -11     1     3     3     0     0 -2.813582876E-01 -2.088848109E+01  3.475292626E+01  4.054841167E+01  5.109989100E-04  0.00000E+00  9.000E+00
      12     1     3     3     0     0  5.099390781E-01  1.149632746E+01 -3.471819808E+01  3.657565940E+01  4.768371582E-07  0.00000E+00  9.000E+00
      -2     1     1     2     0   501  8.211450300E+00 -2.942066940E-01  2.773767035E+00  8.672269436E+00  0.000000000E+00  0.00000E+00  9.000E+00
      -1     1     1     2     0   502 -8.440031090E+00  9.686360332E+00 -5.168966774E+01  5.326238309E+01  0.000000000E+00  0.00000E+00  9.000E+00
</event>
<event>
      7    666  1.00000E+00  2.03430E+00 -1.00000E+00  3.59450E-01
       1    -1     0     0   501     0  0.000000000E+00  0.000000000E+00  3.315299009E+01  3.315299009E+01  0.000000000E+00  0.00000E+00  9.000E+00
      21    -1     0     0   511   501  0.000000000E+00  0.000000000E+00 -1.485561014E+02  1.485561014E+02  0.000000000E+00  0.00000E+00  9.000E+00
     -24     2     1     2     0     0  1.489031435E+00  4.883408785E+00 -1.668464245E+01  8.237117972E+01  8.050198171E+01  0.00000E+00  9.000E+00
      11     1     3     3     0     0 -7.453628528E-01  1.729622634E+01  2.965900392E+01  3.434197906E+01  5.109989100E-04  0.00000E+00  9.000E+00
     -12     1     3     3     0     0  2.234394288E+00 -1.241281756E+01 -4.634364638E+01  4.802920067E+01  1.168007728E-06  0.00000E+00  9.000E+00
       2     1     1     2   502     0 -2.276605418E+00 -6.759065923E+00 -9.291305538E+01  9.318639259E+01  0.000000000E+00  0.00000E+00  9.000E+00
      21     1     1     2   511   502  7.875739831E-01  1.875657138E+00 -5.805413529E+00  6.151519221E+00  1.192092896E-07  0.00000E+00  9.000E+00
</event>
<event>
      7    666  1.00000E+00  9.02970E+00 -1.00000E+00  2.00963E-01
       3    -1     0     0   501     0  0.000000000E+00  0.000000000E+00  3.334859351E+02  3.334859351E+02  0.000000000E+00  0.00000E+00  9.000E+00
      21    -1     0     0   512   502  0.000000000E+00  0.000000000E+00 -2.023351793E+01  2.023351793E+01  0.000000000E+00  0.00000E+00  9.000E+00
     -24     2     1     2     0     0  1.373942642E+00  7.557776694E+00  3.238062634E+02  3.336803092E+02  8.020626398E+01  0.00000E+00  9.000E+00
      11     1     3     3     0     0  2.030277208E+01  3.342899688E+01  2.523495485E+02  2.553624777E+02  5.109989100E-04  0.00000E+00  9.000E+00
     -12     1     3     3     0     0 -1.892882944E+01 -2.587122019E+01  7.145671496E+01  7.831783150E+01  0.000000000E+00  0.00000E+00  9.000E+00
      21     1     1     2   501   502 -7.542529250E+00 -9.635343619E-01 -2.691334733E+00  8.066066488E+00  6.454112478E-07  0.00000E+00  9.000E+00
       4     1     1     2   512     0  6.168586608E+00 -6.594242332E+00 -7.862511566E+00  1.197307733E+01  0.000000000E+00  0.00000E+00  9.000E+00
</event>
<event>
      7    666  1.00000E+00  2.86050E+00 -1.00000E+00  3.03142E-01
      -4    -1     0     0     0   502  0.000000000E+00  0.000000000E+00  6.458875318E+01  6.458875318E+01  0.000000000E+00  0.00000E+00  9.000E+00
      21    -1     0     0   501   512  0.000000000E+00  0.000000000E+00 -9.592645493E+01  9.592645493E+01  0.000000000E+00  0.00000E+00  9.000E+00
     -24     2     1     2     0     0  8.774590615E+00 -7.838877326E+00  3.096985897E+01  8.714871051E+01  8.060598081E+01  0.00000E+00  9.000E+00
      11     1     3     3     0     0 -1.833068650E+01 -3.120297802E+01 -4.854542968E+00  3.651310029E+01  5.109989100E-04  0.00000E+00  9.000E+00
     -12     1     3     3     0     0  2.710527712E+01  2.336410070E+01  3.582440193E+01  5.063561023E+01  1.168007728E-06  0.00000E+00  9.000E+00
      21     1     1     2   501   502 -1.155985308E+01  8.490612176E+00 -3.865836843E+00  1.485481043E+01  8.820681922E-07  0.00000E+00  9.000E+00
      -3     1     1     2     0   512  2.785262469E+00 -6.517348507E-01 -5.844172388E+01  5.851168717E+01  0.000000000E+00  0.00000E+00  9.000E+00
</event>
<event>
      7    666  1.00000E+00  6.54044E+00 -1.00000E+00  2.19734E-01
      21    -1     0     0   502   501  0.000000000E+00  0.000000000E+00  1.687411551E+02  1.687411551E+02  0.000000000E+00  0.00000E+00  9.000E+00
       2    -1     0     0   511     0  0.000000000E+00  0.000000000E+00 -1.973161490E+01  1.973161490E+01  0.000000000E+00  0.00000E+00  9.000E+00
      24     2     1     2     0     0  1.152440037E+01 -5.884793688E+00  1.357992345E+02  1.578561887E+02  7.943363028E+01  0.00000E+00  9.000E+00
     -11     1     3     3     0     0 -2.819042324E+01  1.782052721E+01  4.565528739E+01  5.653915828E+01  5.109989100E-04  0.00000E+00  9.000E+00
      12     1     3     3     0     0  3.971482360E+01 -2.370532089E+01  9.014394715E+01  1.013170305E+02  9.536743164E-07  0.00000E+00  9.000E+00
       1     1     1     2   502     0 -1.805295436E+01  6.278934135E+00  1.444815032E+01  2.396003386E+01  0.000000000E+00  0.00000E+00  9.000E+00
      21     1     1     2   511   501  6.528553997E+00 -3.941404471E-01 -1.237844651E+00  6.656547406E+00  8.560065398E-08  0.00000E+00  9.000E+00
</event>
<event>
      7    666  1.00000E+00  3.04337E+00 -1.00000E+00  2.94852E-01
      21    -1     0     0   502   511  0.000000000E+00  0.000000000E+00  3.460704370E+00  3.460704370E+00  0.000000000E+00  0.00000E+00  9.000E+00
       1    -1     0     0   501     0  0.000000000E+00  0.000000000E+00 -8.290283635E+02  8.290283635E+02  0.000000000E+00  0.00000E+00  9.000E+00
     -24     2     1     2     0     0 -3.988106634E-01 -6.597109314E+00 -6.861378180E+02  6.911410967E+02  8.274798732E+01  0.00000E+00  9.000E+00
      11     1     3     3     0     0 -3.423798426E+01  1.431776504E+01 -4.630029402E+02  4.644878477E+02  5.109989100E-04  0.00000E+00  9.000E+00
     -12     1     3     3     0     0  3.383917360E+01 -2.091487435E+01 -2.231348778E+02  2.266532491E+02  4.672030912E-06  0.00000E+00  9.000E+00
       2     1     1     2   502     0 -2.538595824E+00  5.801045036E+00 -1.377036063E+02  1.378491196E+02  0.000000000E+00  0.00000E+00  9.000E+00
      21     1     1     2   501   511  2.937406487E+00  7.960642782E-01 -1.726234825E+00  3.498851508E+00  1.490116119E-07  0.00000E+00  9.000E+00
</event>
<event>
      7    666  1.00000E+00  1.76115E+01 -1.00000E+00  1.71015E-01
       2    -1     0     0   501     0  0.000000000E+00  0.000000000E+00  5.337405633E+02  5.337405633E+02  0.000000000E+00  0.00000E+00  9.000E+00
      21    -1     0     0   502   501  0.000000000E+00  0.000000000E+00 -4.793782831E+00  4.793782831E+00  0.000000000E+00  0.00000E+00  9.000E+00
      24     2     1     2     0     0  1.020519484E+01  5.678266811E+00  4.361964984E+02  4.441850956E+02  8.304592217E+01  0.00000E+00  9.000E+00
     -11     1     3     3     0     0 -2.327577059E+01  2.419495131E+01  9.322455166E+01  9.908569119E+01  5.109989100E-04  0.00000E+00  9.000E+00
      12     1     3     3     0     0  3.348096543E+01 -1.851668450E+01  3.429719468E+02  3.450994044E+02  5.394796609E-06  0.00000E+00  9.000E+00
       1     1     1     2   511     0 -1.830402589E+00 -9.445713451E-01  1.392325800E+00  2.486193837E+00  0.000000000E+00  0.00000E+00  9.000E+00
      21     1     1     2   502   511 -8.374792248E+00 -4.733695466E+00  9.135795623E+01  9.186305669E+01  1.907348633E-06  0.00000E+00  9.000E+00
</event>
<event>
      7    666  1.00000E+00  1.02148E+01 -1.00000E+00  1.94638E-01
       1    -1     0     0   501     0  0.000000000E+00  0.000000000E+00  4.206322748E+02  4.206322748E+02  0.000000000E+00  0.00000E+00  9.000E+00
      21    -1     0     0   502   501  0.000000000E+00  0.000000000E+00 -5.900858526E+00  5.900858526E+00  0.000000000E+00  0.00000E+00  9.000E+00
     -24     2     1     2     0     0  1.399063134E+01 -9.642814183E+00  3.141001910E+02  3.240196458E+02  7.772437977E+01  0.00000E+00  9.000E+00
      11     1     3     3     0     0 -2.389858194E+01  9.675319260E+00  2.098503782E+02  2.114283218E+02  5.109989100E-04  0.00000E+00  9.000E+00
     -12     1     3     3     0     0  3.788921328E+01 -1.931813344E+01  1.042498128E+02  1.125913240E+02  1.348699152E-06  0.00000E+00  9.000E+00
       2     1     1     2   512     0 -4.689574766E+00  5.241672603E+00  6.633762087E+01  6.670942352E+01  0.000000000E+00  0.00000E+00  9.000E+00
      21     1     1     2   502   512 -9.301056576E+00  4.401141580E+00  3.429360439E+01  3.580406405E+01  4.768371582E-07  0.00000E+00  9.000E+00
</event>
<event>
      7    666  1.00000E+00  1.37873E+01 -1.00000E+00  1.80854E-01
       2    -1     0     0   511     0  0.000000000E+00  0.000000000E+00  2.678368108E+02  2.678368108E+02  0.000000000E+00  0.00000E+00  9.000E+00
      -1    -1     0     0     0   502  0.000000000E+00  0.000000000E+00 -1.430003823E+01  1.430003823E+01  0.000000000E+00  0.00000E+00  9.000E+00
      24     2     1     2     0     0 -2.965342780E+00  6.634322338E+00  1.021562955E+02  1.286126564E+02  7.779780953E+01  0.00000E+00  9.000E+00
     -11     1     3     3     0     0 -1.957680510E+01  3.621238726E+01  3.791949849E+01  5.596853272E+01  5.109989100E-04  0.00000E+00  9.000E+00
      12     1     3     3     0     0  1.661146232E+01 -2.957806492E+01  6.423679706E+01  7.264412366E+01  9.536743164E-07  0.00000E+00  9.000E+00
      21     1     1     2   501   502 -8.850484642E+00  4.702997167E-01  9.770886114E+01  9.811000870E+01  1.348699152E-06  0.00000E+00  9.000E+00
      21     1     1     2   511   501  1.181582742E+01 -7.104622055E+00  5.367161586E+01  5.541418393E+01  6.743495762E-07  0.00000E+00  9.000E+00
</event>
<event>
      7    666  1.00000E+00  5.94988E+00 -1.00000E+00  2.25960E-01
      21    -1     0     0   502   501  0.000000000E+00  0.000000000E+00  7.888435236E+00  7.888435236E+00  0.000000000E+00  0.00000E+00  9.000E+00
       1    -1     0     0   501     0  0.000000000E+00  0.000000000E+00 -3.247483035E+02  3.247483035E+02  0.000000000E+00  0.00000E+00  9.000E+00
     -24     2     1     2     0     0  8.553684567E+00 -8.136810918E+00 -2.491768032E+02  2.633148178E+02  8.429852177E+01  0.00000E+00  9.000E+00
      11     1     3     3     0     0  2.834878597E+01 -3.572272210E+01 -1.869026998E+02  1.923860331E+02  5.109989100E-04  0.00000E+00  9.000E+00
     -12     1     3     3     0     0 -1.979510140E+01  2.758591119E+01 -6.227410347E+01  7.092878470E+01  6.743495762E-07  0.00000E+00  9.000E+00
       2     1     1     2   512     0 -5.790790175E+00  5.387688082E+00 -6.154348315E+01  6.204966360E+01  0.000000000E+00  0.00000E+00  9.000E+00
      21     1     1     2   502   512 -2.762894392E+00  2.749122836E+00 -6.139581905E+00  7.272257404E+00  2.384185791E-07  0.00000E+00  9.000E+00
</event>
<event>
      7    666  1.00000E+00  3.09633E+01 -1.00000E+00  1.52058E-01
      -2    -1     0     0     0   502  0.000000000E+00  0.000000000E+00  7.588881947E+01  7.588881947E+01  0.000000000E+00  0.00000E+00  9.000E+00
       1    -1     0     0   501     0  0.000000000E+00  0.000000000E+00 -2.109823510E+02  2.109823510E+02  0.000000000E+00  0.00000E+00  9.000E+00
     -24     2     1     2     0     0 -5.633228227E+01 -5.380912429E+01 -1.635906645E+02  1.980517222E+02  7.996143613E+01  0.00000E+00  9.000E+00
      11     1     3     3     0     0 -1.897690125E+01 -6.621390733E+01 -1.261390356E+02  1.437200772E+02  5.109989100E-04  0.00000E+00  9.000E+00
     -12     1     3     3     0     0 -3.735538103E+01  1.240478305E+01 -3.745162892E+01  5.433164495E+01  0.000000000E+00  0.00000E+00  9.000E+00
      21     1     1     2   511   502  3.994746694E+01  3.183516424E+01  2.658114409E+00  5.115020400E+01  1.555726902E-06  0.00000E+00  9.000E+00
      21     1     1     2   501   511  1.638481534E+01  2.197396005E+01  2.583901848E+01  3.766924435E+01  1.581489940E-06  0.00000E+00  9.000E+00
</event>
<event>
      7    666  1.00000E+00  1.99803E+01 -1.00000E+00  1.66363E-01
      -1    -1     0     0     0   502  0.000000000E+00  0.000000000E+00  6.941132410E+01  6.941132410E+01  0.000000000E+00  0.00000E+00  9.000E+00
      -3    -1     0     0     0   501  0.000000000E+00  0.000000000E+00 -1.450834746E+02  1.450834746E+02  0.000000000E+00  0.00000E+00  9.000E+00
      24     2     1     2     0     0  1.662902210E+00 -1.843546429E+00  3.092398084E+01  8.560687927E+01  7.978772638E+01  0.00000E+00  9.000E+00
     -11     1     3     3     0     0  1.032657746E+01 -8.043069417E+00  5.644963053E+01  5.794730325E+01  5.109989100E-04  0.00000E+00  9.000E+00
      12     1     3     3     0     0 -8.663675252E+00  6.199522989E+00 -2.552564968E+01  2.765957602E+01  0.000000000E+00  0.00000E+00  9.000E+00
      -2     1     1     2     0   501 -1.109488116E+01 -1.577036768E+01  1.138954225E+00  1.931574750E+01  0.000000000E+00  0.00000E+00  9.000E+00
      -3     1     1     2     0   502  9.431978953E+00  1.761391411E+01 -1.077350855E+02  1.095721719E+02  0.000000000E+00  0.00000E+00  9.000E+00
</event>
<event>
      7    666  1.00000E+00  3.32178E+01 -1.00000E+00  1.49995E-01
      21    -1     0     0   511   502  0.000000000E+00  0.000000000E+00  1.096985489E+02  1.096985489E+02  0.000000000E+00  0.00000E+00  9.000E+00
       1    -1     0     0   501     0  0.000000000E+00  0.000000000E+00 -7.314216935E+02  7.314216935E+02  0.000000000E+00  0.00000E+00  9.000E+00
     -24     2     1     2     0     0 -3.391405562E+01 -1.358377018E+01 -6.132913924E+02  6.195775882E+02  8.009602906E+01  0.00000E+00  9.000E+00
      11     1     3     3     0     0 -3.038835380E+01 -4.544005505E+01 -4.358628956E+02  4.392774913E+02  5.109989100E-04  0.00000E+00  9.000E+00
     -12     1     3     3     0     0 -3.525701824E+00  3.185628487E+01 -1.774284969E+02  1.803000970E+02  4.264961200E-06  0.00000E+00  9.000E+00
      21     1     1     2   501   502  3.615136742E+00  2.719993179E+01 -1.106817486E+02  1.140322541E+02  3.303624740E-06  0.00000E+00  9.000E+00
       2     1     1     2   511     0  3.029891888E+01 -1.361616161E+01  1.022499964E+02  1.075104000E+02  0.000000000E+00  0.00000E+00  9.000E+00
</event>
<event>
      7    666  1.00000E+00  7.07027E+00 -1.00000E+00  2.14871E-01
       2    -1     0     0   502     0  0.000000000E+00  0.000000000E+00  1.374031059E+02  1.374031059E+02  0.000000000E+00  0.00000E+00  9.000E+00
       2    -1     0     0   501     0  0.000000000E+00  0.000000000E+00 -6.824290121E+02  6.824290121E+02  0.000000000E+00  0.00000E+00  9.000E+00
      24     2     1     2     0     0  5.778347083E+00  5.299181165E+00 -6.774804480E+02  6.833235586E+02  8.882487098E+01  0.00000E+00  9.000E+00
     -11     1     3     3     0     0 -1.928794346E+01 -3.438736921E+01 -2.264086731E+02  2.298160203E+02  5.109989100E-04  0.00000E+00  9.000E+00
      12     1     3     3     0     0  2.506629054E+01  3.968655037E+01 -4.510717749E+02  4.535075384E+02  0.000000000E+00  0.00000E+00  9.000E+00
       1     1     1     2   502     0  1.184511015E+00 -6.526900906E+00  3.770065300E+00  7.629999616E+00  0.000000000E+00  0.00000E+00  9.000E+00
       2     1     1     2   501     0 -6.962858098E+00  1.227719741E+00  1.286844765E+02  1.288785598E+02  0.000000000E+00  0.00000E+00  9.000E+00
</event>
<event>
      7    666  1.00000E+00  1.89603E+02 -1.00000E+00  1.12480E-01
       2    -1     0     0   501     0  0.000000000E+00  0.000000000E+00  1.276409750E+02  1.276409750E+02  0.000000000E+00  0.00000E+00  9.000E+00
      21    -1     0     0   502   501  0.000000000E+00  0.000000000E+00 -9.741042639E+01  9.741042639E+01  0.000000000E+00  0.00000E+00  9.000E+00
      24     2     1     2     0     0 -3.498707828E+00  4.817848919E+00  1.122455715E+02  1.386841193E+02  8.123277670E+01  0.00000E+00  9.000E+00
     -11     1     3     3     0     0 -1.993524021E+01 -1.123686378E+01 -1.219061711E+00  2.291652290E+01  5.109989100E-04  0.00000E+00  9.000E+00
      12     1     3     3     0     0  1.643653238E+01  1.605471270E+01  1.134646332E+02  1.157675964E+02  1.348699152E-06  0.00000E+00  9.000E+00
       1     1     1     2   511     0  6.008017248E-01  2.302440860E-01  2.025596940E+00  2.125327743E+00  0.000000000E+00  0.00000E+00  9.000E+00
      21     1     1     2   502   511  2.897906103E+00 -5.048093005E+00 -8.404061977E+01  8.424195436E+01  4.473129043E-06  0.00000E+00  9.000E+00
</event>
<event>
      7    666  1.00000E+00  3.05310E+02 -1.00000E+00  1.05329E-01
       2    -1     0     0   501     0  0.000000000E+00  0.000000000E+00  3.744550183E+01  3.744550183E+01  0.000000000E+00  0.00000E+00  9.000E+00
      21    -1     0     0   502   501  0.000000000E+00  0.000000000E+00 -8.142445564E+02  8.142445564E+02  0.000000000E+00  0.00000E+00  9.000E+00
      24     2     1     2     0     0  1.511372972E-01 -4.603076361E+00 -1.196228338E+01  7.887440674E+01  7.782586113E+01  0.00000E+00  9.000E+00
     -11     1     3     3     0     0  2.382869259E+01 -1.982900989E+01 -3.182036909E+01  4.442445400E+01  5.109989100E-04  0.00000E+00  9.000E+00
      12     1     3     3     0     0 -2.367755530E+01  1.522593353E+01  1.985808571E+01  3.444995275E+01  1.831327855E-06  0.00000E+00  9.000E+00
       1     1     1     2   511     0  8.111491311E+00 -1.309954133E+01 -1.150129803E+01  1.922691163E+01  0.000000000E+00  0.00000E+00  9.000E+00
      21     1     1     2   502   511 -8.262628608E+00  1.770261769E+01 -7.533354732E+02  7.535887398E+02  1.078959322E-05  0.00000E+00  9.000E+00
</event>
<event>
      7    666  1.00000E+00  4.44585E+00 -1.00000E+00  2.53006E-01
      -1    -1     0     0     0   511  0.000000000E+00  0.000000000E+00  1.664599671E+02  1.664599671E+02  0.000000000E+00  0.00000E+00  9.000E+00
       2    -1     0     0   501     0  0.000000000E+00  0.000000000E+00 -6.401803048E+01  6.401803048E+01  0.000000000E+00  0.00000E+00  9.000E+00
      24     2     1     2     0     0 -2.720355869E+01 -2.892734963E+01  1.430623801E+02  1.698058462E+02  8.240361408E+01  0.00000E+00  9.000E+00
     -11     1     3     3     0     0  5.258994751E+00 -2.789949204E+01  1.327162093E+02  1.357189408E+02  5.109989100E-04  0.00000E+00  9.000E+00
      12     1     3     3     0     0 -3.246255345E+01 -1.027857593E+00  1.034617089E+01  3.408690540E+01  1.420542632E-06  0.00000E+00  9.000E+00
      21     1     1     2   501   502  2.346713713E+01  2.651805078E+01 -4.294006743E+01  5.565755055E+01  2.023048729E-06  0.00000E+00  9.000E+00
      21     1     1     2   502   511  3.736421559E+00  2.409298853E+00  2.319623935E+00  5.014600905E+00  5.161913656E-08  0.00000E+00  9.000E+00
</event>
<event>
      7    666  1.00000E+00  1.17234E+01 -1.00000E+00  1.88046E-01
      21    -1     0     0   502   501  0.000000000E+00  0.000000000E+00  8.697057704E+00  8.697057704E+00  0.000000000E+00  0.00000E+00  9.000E+00
       2    -1     0     0   511     0  0.000000000E+00  0.000000000E+00 -4.404627811E+02  4.404627811E+02  0.000000000E+00  0.00000E+00  9.000E+00
      24     2     1     2     0     0  1.438998923E+01 -1.261799509E-01 -2.476176398E+02  2.608351553E+02  8.070560695E+01  0.00000E+00  9.000E+00
     -11     1     3     3     0     0 -2.854113132E+01 -1.803031654E+01 -1.310779235E+02  1.353554968E+02  5.109989100E-04  0.00000E+00  9.000E+00
      12     1     3     3     0     0  4.293112054E+01  1.790413659E+01 -1.165397164E+02  1.254796585E+02  1.348699152E-06  0.00000E+00  9.000E+00
       3     1     1     2   502     0 -2.481515281E+01 -5.236069883E+00 -9.192302333E+01  9.535748767E+01  0.000000000E+00  0.00000E+00  9.000E+00
      21     1     1     2   511   501  1.042516358E+01  5.362249833E+00 -9.222506021E+01  9.296719577E+01  0.000000000E+00  0.00000E+00  9.000E+00
</event>
<event>
      7    666  1.00000E+00  3.18823E+01 -1.00000E+00  1.51192E-01
      -1    -1     0     0     0   511  0.000000000E+00  0.000000000E+00  1.693079086E+02  1.693079086E+02  0.000000000E+00  0.00000E+00  9.000E+00
      21    -1     0     0   502   501  0.000000000E+00  0.000000000E+00 -1.174706497E+02  1.174706497E+02  0.000000000E+00  0.00000E+00  9.000E+00
      24     2     1     2     0     0 -1.566735578E+00 -2.563673048E+01  1.033102206E+02  1.335282014E+02  8.060448066E+01  0.00000E+00  9.000E+00
     -11     1     3     3     0     0  4.949369161E+00 -3.796730640E+01  1.111286604E+02  1.175397455E+02  5.109989100E-04  0.00000E+00  9.000E+00
      12     1     3     3     0     0 -6.516104739E+00  1.233057592E+01 -7.818439816E+00  1.598845598E+01  3.153981341E-07  0.00000E+00  9.000E+00
      -2     1     1     2     0   501 -3.027768375E+01  2.718959626E+01 -9.263838084E+01  1.011824188E+02  0.000000000E+00  0.00000E+00  9.000E+00
      21     1     1     2   502   511  3.184441933E+01 -1.552865782E+00  4.116541914E+01  5.206793800E+01  0.000000000E+00  0.00000E+00  9.000E+00
</event>
<event>
      7    666  1.00000E+00  4.54086E+00 -1.00000E+00  2.51035E-01
       2    -1     0     0   501     0  0.000000000E+00  0.000000000E+00  1.235806493E+03  1.235806493E+03  0.000000000E+00  0.00000E+00  9.000E+00
      -1    -1     0     0     0   502  0.000000000E+00  0.000000000E+00 -2.206422434E+00  2.206422434E+00  0.000000000E+00  0.00000E+00  9.000E+00
      24     2     1     2     0     0  5.953947653E+00 -2.906283191E+00  7.961859369E+02  8.004166817E+02  8.192021884E+01  0.00000E+00  9.000E+00
     -11     1     3     3     0     0  3.514537317E+01  2.285193776E+01  3.405440086E+02  3.431146020E+02  5.109989100E-04  0.00000E+00  9.000E+00
      12     1     3     3     0     0 -2.919142552E+01 -2.575822095E+01  4.556419283E+02  4.573020797E+02  5.394796609E-06  0.00000E+00  9.000E+00
      21     1     1     2   501   511 -3.711453809E+00  5.087055015E+00  4.005881524E+02  4.006376428E+02  1.078959322E-05  0.00000E+00  9.000E+00
      21     1     1     2   511   502 -2.242493843E+00 -2.180771824E+00  3.682598098E+01  3.695859060E+01  4.768371582E-07  0.00000E+00  9.000E+00
</event>
<event>
      7    666  1.00000E+00  1.35423E+01 -1.00000E+00  1.81621E-01
       2    -1     0     0   511     0  0.000000000E+00  0.000000000E+00  3.452122281E+02  3.452122281E+02  0.000000000E+00  0.00000E+00  9.000E+00
      21    -1     0     0   502   501  0.000000000E+00  0.000000000E+00 -2.629047818E+01  2.629047818E+01  0.000000000E+00  0.00000E+00  9.000E+00
      24     2     1     2     0     0  4.199768423E+00  3.216375323E+01  1.673064026E+02  1.879899014E+02  7.935127987E+01  0.00000E+00  9.000E+00
     -11     1     3     3     0     0  1.882735296E+00 -1.562932640E+01  1.965576993E+00  1.586455260E+01  5.109989100E-04  0.00000E+00  9.000E+00
      12     1     3     3     0     0  2.317033128E+00  4.779307963E+01  1.653408256E+02  1.721253488E+02  2.697398305E-06  0.00000E+00  9.000E+00
       1     1     1     2   502     0  6.394744019E+00 -2.372873144E+01 -6.015893391E+00  2.530091738E+01  0.000000000E+00  0.00000E+00  9.000E+00
      21     1     1     2   511   501 -1.059451244E+01 -8.435021789E+00  1.576312408E+02  1.582118875E+02  1.907348633E-06  0.00000E+00  9.000E+00
</event>
<event>
      7    666  1.00000E+00  3.70440E+00 -1.00000E+00  2.71467E-01
      21    -1     0     0   502   512  0.000000000E+00  0.000000000E+00  7.949358015E+00  7.949358015E+00  0.000000000E+00  0.00000E+00  9.000E+00
       2    -1     0     0   501     0  0.000000000E+00  0.000000000E+00 -6.351103574E+02  6.351103574E+02  0.000000000E+00  0.00000E+00  9.000E+00
      24     2     1     2     0     0 -1.024582575E+01  9.123094700E+00 -6.227525624E+02  6.281071203E+02  8.068204748E+01  0.00000E+00  9.000E+00
     -11     1     3     3     0     0 -3.510116581E+01 -2.013566409E+01 -2.349995911E+02  2.384582660E+02  5.109989100E-04  0.00000E+00  9.000E+00
      12     1     3     3     0     0  2.485534006E+01  2.925875879E+01 -3.877529713E+02  3.896488543E+02  5.394796609E-06  0.00000E+00  9.000E+00
       1     1     1     2   502     0  8.807545190E+00 -5.709304367E+00 -3.972050862E+00  1.122257531E+01  0.000000000E+00  0.00000E+00  9.000E+00
      21     1     1     2   501   512  1.438280558E+00 -3.413790334E+00 -4.363861980E-01  3.730019882E+00  6.029909125E-08  0.00000E+00  9.000E+00
</event>
<event>
      7    666  1.00000E+00  1.77383E+01 -1.00000E+00  1.70743E-01
       1    -1     0     0   501     0  0.000000000E+00  0.000000000E+00  6.571570078E+02  6.571570078E+02  0.000000000E+00  0.00000E+00  9.000E+00
      -2    -1     0     0     0   502  0.000000000E+00  0.000000000E+00 -3.920516355E+00  3.920516355E+00  0.000000000E+00  0.00000E+00  9.000E+00
     -24     2     1     2     0     0  5.275421614E+00  8.822544922E+00  4.205684427E+02  4.281610514E+02  7.961409176E+01  0.00000E+00  9.000E+00
      11     1     3     3     0     0  3.556781997E+01  2.227461941E+01  3.069865504E+02  3.098418477E+02  5.109989100E-04  0.00000E+00  9.000E+00
     -12     1     3     3     0     0 -3.029239835E+01 -1.345207448E+01  1.135818923E+02  1.183192037E+02  2.697398305E-06  0.00000E+00  9.000E+00
       4     1     1     2   501     0  2.903831158E-01  3.278737453E-02  7.316326014E+00  7.322159771E+00  0.000000000E+00  0.00000E+00  9.000E+00
      -4     1     1     2     0   502 -5.565804730E+00 -8.855332297E+00  2.253517227E+02  2.255943130E+02  0.000000000E+00  0.00000E+00  9.000E+00
</event>
<event>
      7    666  1.00000E+00  3.33262E+01 -1.00000E+00  1.49901E-01
      21    -1     0     0   511   502  0.000000000E+00  0.000000000E+00  1.798740652E+02  1.798740652E+02  0.000000000E+00  0.00000E+00  9.000E+00
       2    -1     0     0   501     0  0.000000000E+00  0.000000000E+00 -2.145360719E+02  2.145360719E+02  0.000000000E+00  0.00000E+00  9.000E+00
      24     2     1     2     0     0  5.912235379E+01  1.229691686E+02 -8.867390157E+01  1.811065556E+02  7.949625478E+01  0.00000E+00  9.000E+00
     -11     1     3     3     0     0 -1.303488826E+01  4.507372515E+01 -7.643882311E+00  4.753922536E+01  5.109989100E-04  0.00000E+00  9.000E+00
      12     1     3     3     0     0  7.215724205E+01  7.789544344E+01 -8.103001926E+01  1.335673303E+02  1.348699152E-06  0.00000E+00  9.000E+00
      21     1     1     2   501   502 -4.928255122E+01 -9.112876082E+01 -4.191010033E+01  1.117572253E+02  2.132480600E-06  0.00000E+00  9.000E+00
       1     1     1     2   511     0 -9.839802574E+00 -3.184040777E+01  9.592199525E+01  1.015463562E+02  0.000000000E+00  0.00000E+00  9.000E+00
</event>
<event>
      7    666  1.00000E+00  2.73418E+00 -1.00000E+00  3.09503E-01
       1    -1     0     0   501     0  0.000000000E+00  0.000000000E+00  1.063409717E+03  1.063409717E+03  0.000000000E+00  0.00000E+00  9.000E+00
      -4    -1     0     0     0   502  0.000000000E+00  0.000000000E+00 -2.125539265E+00  2.125539265E+00  0.000000000E+00  0.00000E+00  9.000E+00
     -24     2     1     2     0     0 -5.064240469E+00 -1.011120929E+01  8.856176479E+02  8.893384121E+02  8.047552324E+01  0.00000E+00  9.000E+00
      11     1     3     3     0     0 -4.421303578E+00  2.238526145E+01  7.302974547E+02  7.306538306E+02  5.109989100E-04  0.00000E+00  9.000E+00
     -12     1     3     3     0     0 -6.429368911E-01 -3.249647074E+01  1.553201933E+02  1.586845815E+02  4.264961200E-06  0.00000E+00  9.000E+00
      21     1     1     2   501   511  4.110898425E+00  1.131984403E+01  1.609811553E+02  1.614310091E+02  1.907348633E-06  0.00000E+00  9.000E+00
      21     1     1     2   511   502  9.533420435E-01 -1.208634738E+00  1.468537442E+01  1.476583491E+01  0.000000000E+00  0.00000E+00  9.000E+00
</event>
<event>
      7    666  1.00000E+00  3.37689E+01 -1.00000E+00  1.49520E-01
       3    -1     0     0   501     0  0.000000000E+00  0.000000000E+00  3.411255372E+01  3.411255372E+01  0.000000000E+00  0.00000E+00  9.000E+00
       1    -1     0     0   502     0  0.000000000E+00  0.000000000E+00 -6.416916182E+02  6.416916182E+02  0.000000000E+00  0.00000E+00  9.000E+00
     -24     2     1     2     0     0 -1.754981141E+00  1.594590264E+01 -2.750057918E+01  8.626164447E+01  8.017130211E+01  0.00000E+00  9.000E+00
      11     1     3     3     0     0  3.621283080E+01  2.011783508E+01 -2.407143301E+01  4.791169262E+01  5.109989100E-04  0.00000E+00  9.000E+00
     -12     1     3     3     0     0 -3.796781194E+01 -4.171932435E+00 -3.429146163E+00  3.834995185E+01  6.610474888E-07  0.00000E+00  9.000E+00
       4     1     1     2   502     0 -9.944619623E+00  1.573155381E+01 -1.625993091E+01  2.471361159E+01  0.000000000E+00  0.00000E+00  9.000E+00
       1     1     1     2   501     0  1.169960076E+01 -3.167745645E+01 -5.638185544E+02  5.648289159E+02  0.000000000E+00  0.00000E+00  9.000E+00
</event>
<event>
      7    666  1.00000E+00  1.46807E+02 -1.00000E+00  1.16745E-01
      21    -1     0     0   502   501  0.000000000E+00  0.000000000E+00  3.783731145E+02  3.783731145E+02  0.000000000E+00  0.00000E+00  9.000E+00
      -4    -1     0     0     0   502  0.000000000E+00  0.000000000E+00 -5.813172932E+01  5.813172932E+01  0.000000000E+00  0.00000E+00  9.000E+00
     -24     2     1     2     0     0  5.633792773E+00 -1.174955662E+00 -3.066088594E+01  8.450822244E+01  7.853935060E+01  0.00000E+00  9.000E+00
      11     1     3     3     0     0  9.481695522E-01  4.916169894E+00  2.643121152E+01  2.690123965E+01  5.109989100E-04  0.00000E+00  9.000E+00
     -12     1     3     3     0     0  4.685623221E+00 -6.091125555E+00 -5.709209746E+01  5.760698280E+01  2.697398305E-06  0.00000E+00  9.000E+00
      -3     1     1     2     0   511 -3.183755391E+00 -2.727512365E+00  7.732043141E+00  8.795459808E+00  0.000000000E+00  0.00000E+00  9.000E+00
      21     1     1     2   511   501 -2.450037382E+00  3.902468027E+00  3.431702279E+02  3.432011615E+02  5.394796609E-06  0.00000E+00  9.000E+00
</event>
<event>
      7    666  1.00000E+00  3.17233E+00 -1.00000E+00  2.89564E-01
      21    -1     0     0   511   501  0.000000000E+00  0.000000000E+00  9.465493270E+00  9.465493270E+00  0.000000000E+00  0.00000E+00  9.000E+00
      -1    -1     0     0     0   502  0.000000000E+00  0.000000000E+00 -7.652087034E+02  7.652087034E+02  0.000000000E+00  0.00000E+00  9.000E+00
      24     2     1     2     0     0  7.506423729E+00  3.742508999E+00 -6.794728329E+02  6.842980030E+02  8.068502578E+01  0.00000E+00  9.000E+00
     -11     1     3     3     0     0 -2.377320419E+01  1.171738669E+01 -5.573847921E+02  5.580145776E+02  5.109989100E-04  0.00000E+00  9.000E+00
      12     1     3     3     0     0  3.127962792E+01 -7.974877688E+00 -1.220880409E+02  1.262834254E+02  4.862803949E-06  0.00000E+00  9.000E+00
      -2     1     1     2     0   501 -5.508403527E+00 -1.278444116E+00 -8.286526196E+01  8.305798317E+01  0.000000000E+00  0.00000E+00  9.000E+00
      21     1     1     2   511   502 -1.998020203E+00 -2.464064883E+00  6.594884764E+00  7.318210542E+00  5.591411304E-07  0.00000E+00  9.000E+00
</event>
<event>
      7    666  1.00000E+00  2.74179E+00 -1.00000E+00  3.09104E-01
      21    -1     0     0   502   512  0.000000000E+00  0.000000000E+00  4.403583309E+01  4.403583309E+01  0.000000000E+00  0.00000E+00  9.000E+00
       2    -1     0     0   501     0  0.000000000E+00  0.000000000E+00 -1.008267828E+03  1.008267828E+03  0.000000000E+00  0.00000E+00  9.000E+00
      24     2     1     2     0     0  2.184180684E+00  5.375882637E+00 -1.005576810E+03  1.008831567E+03  8.076347360E+01  0.00000E+00  9.000E+00
     -11     1     3     3     0     0  2.368770888E+01 -2.370564506E+01 -2.318038052E+02  2.342137256E+02  5.109989100E-04  0.00000E+00  9.000E+00
      12     1     3     3     0     0 -2.150352820E+01  2.908152770E+01 -7.737730050E+02  7.746178414E+02  0.000000000E+00  0.00000E+00  9.000E+00
       1     1     1     2   502     0 -3.659204806E+00 -3.064671880E+00  4.612373765E+00  6.637468290E+00  0.000000000E+00  0.00000E+00  9.000E+00
      21     1     1     2   501   512  1.475024123E+00 -2.311210757E+00  3.673244155E+01  3.683462575E+01  9.536743164E-07  0.00000E+00  9.000E+00
</event>
<event>
      7    666  1.00000E+00  1.19417E+01 -1.00000E+00  1.87197E-01
       1    -1     0     0   501     0  0.000000000E+00  0.000000000E+00  1.197021140E+03  1.197021140E+03  0.000000000E+00  0.00000E+00  9.000E+00
      21    -1     0     0   502   511  0.000000000E+00  0.000000000E+00 -2.412205812E+01  2.412205812E+01  0.000000000E+00  0.00000E+00  9.000E+00
     -24     2     1     2     0     0  5.507775236E+00  7.491770647E+00  9.826647876E+02  9.860516898E+02  8.112575348E+01  0.00000E+00  9.000E+00
      11     1     3     3     0     0 -8.897313478E+00 -2.910847754E+01  7.002285543E+02  7.008897873E+02  5.109989100E-04  0.00000E+00  9.000E+00
     -12     1     3     3     0     0  1.440508871E+01  3.660024819E+01  2.824362333E+02  2.851619025E+02  1.009274029E-05  0.00000E+00  9.000E+00
       2     1     1     2   502     0 -8.264962874E+00 -1.911084735E+01  2.105225278E+02  2.115496840E+02  0.000000000E+00  0.00000E+00  9.000E+00
      21     1     1     2   501   511  2.757187639E+00  1.161907670E+01 -2.028823406E+01  2.354182381E+01  6.743495762E-07  0.00000E+00  9.000E+00
</event>
<event>
      7    666  1.00000E+00  1.44110E+00 -1.00000E+00  4.58412E-01
      21    -1     0     0   502   501  0.000000000E+00  0.000000000E+00  7.617987683E+01  7.617987683E+01  0.000000000E+00  0.00000E+00  9.000E+00
      -3    -1     0     0     0   512  0.000000000E+00  0.000000000E+00 -6.242202334E+01  6.242202334E+01  0.000000000E+00  0.00000E+00  9.000E+00
      24     2     1     2     0     0  2.921242055E+01 -1.205038138E+01 -1.900768823E+01  8.840450477E+01  8.034604562E+01  0.00000E+00  9.000E+00
     -11     1     3     3     0     0 -8.584535625E-01  2.548307430E+01  1.492539861E+01  2.954473798E+01  5.109989100E-04  0.00000E+00  9.000E+00
      12     1     3     3     0     0  3.007087411E+01 -3.753345567E+01 -3.393308684E+01  5.885976680E+01  8.259061849E-07  0.00000E+00  9.000E+00
      -4     1     1     2     0   501 -2.787122133E+01  1.152316145E+01  3.581652019E+01  4.682319240E+01  0.000000000E+00  0.00000E+00  9.000E+00
      21     1     1     2   502   512 -1.341199225E+00  5.272199247E-01 -3.050978470E+00  3.374202992E+00  5.960464478E-08  0.00000E+00  9.000E+00
</event>
<event>
      7    666  1.00000E+00  2.56616E+01 -1.00000E+00  1.57869E-01
       1    -1     0     0   501     0  0.000000000E+00  0.000000000E+00  1.280574391E+02  1.280574391E+02  0.000000000E+00  0.00000E+00  9.000E+00
      21    -1     0     0   502   501  0.000000000E+00  0.000000000E+00 -2.768438892E+01  2.768438892E+01  0.000000000E+00  0.00000E+00  9.000E+00
     -24     2     1     2     0     0  3.492260483E+00 -6.937154834E+00  8.120926573E+01  1.152931468E+02  8.146928783E+01  0.00000E+00  9.000E+00
      11     1     3     3     0     0  2.531999475E+01  2.612163338E+01  1.773650056E+01  4.047252545E+01  5.109989100E-04  0.00000E+00  9.000E+00
     -12     1     3     3     0     0 -2.182773427E+01 -3.305878821E+01  6.347276518E+01  7.482062136E+01  0.000000000E+00  0.00000E+00  9.000E+00
       2     1     1     2   511     0  2.504753436E-01  1.508160628E+01 -4.005161814E+00  1.560637392E+01  0.000000000E+00  0.00000E+00  9.000E+00
      21     1     1     2   502   511 -3.742735827E+00 -8.144451444E+00  2.316894628E+01  2.484230731E+01  5.840038640E-07  0.00000E+00  9.000E+00
</event>
<event>
      7    666  1.00000E+00  2.34364E+01 -1.00000E+00  1.60842E-01
       3    -1     0     0   501     0  0.000000000E+00  0.000000000E+00  1.239691132E+02  1.239691132E+02  0.000000000E+00  0.00000E+00  9.000E+00
      21    -1     0     0   502   511  0.000000000E+00  0.000000000E+00 -2.083055038E+03  2.083055038E+03  0.000000000E+00  0.00000E+00  9.000E+00
     -24     2     1     2     0     0 -2.059804492E+00  2.640546982E+00  1.005437133E+02  1.297690575E+02  8.197411005E+01  0.00000E+00  9.000E+00
      11     1     3     3     0     0  3.894709976E+00 -3.858348498E+01  3.575890041E+01  5.274991031E+01  5.109989100E-04  0.00000E+00  9.000E+00
     -12     1     3     3     0     0 -5.954514468E+00  4.122403196E+01  6.478481290E+01  7.701914720E+01  1.651812370E-06  0.00000E+00  9.000E+00
       4     1     1     2   502     0  1.652217538E+01 -2.108247636E+01 -1.176311634E+01  2.925446965E+01  0.000000000E+00  0.00000E+00  9.000E+00
      21     1     1     2   501   511 -1.446237089E+01  1.844192937E+01 -2.047866522E+03  2.048000624E+03  2.157918644E-05  0.00000E+00  9.000E+00
</event>
<event>
      7    666  1.00000E+00  8.14590E+00 -1.00000E+00  2.06584E-01
      -1    -1     0     0     0   511  0.000000000E+00  0.000000000E+00  5.360857582E+01  5.360857582E+01  0.000000000E+00  0.00000E+00  9.000E+00
       2    -1     0     0   501     0  0.000000000E+00  0.000000000E+00 -5.984777463E+01  5.984777463E+01  0.000000000E+00  0.00000E+00  9.000E+00
      24     2     1     2     0     0  2.012396105E+01 -2.832516773E+00 -8.562498412E+00  8.614691964E+01  8.327651785E+01  0.00000E+00  9.000E+00
     -11     1     3     3     0     0  2.676003197E+01 -3.450268175E+01  1.494579649E+01  4.615096090E+01  5.109989100E-04  0.00000E+00  9.000E+00
      12     1     3     3     0     0 -6.636070926E+00  3.167016497E+01 -2.350829490E+01  3.999595875E+01  4.768371582E-07  0.00000E+00  9.000E+00
      21     1     1     2   501   502 -1.828021668E+01 -5.101980180E+00  6.293941936E-01  1.898927752E+01  5.856175307E-07  0.00000E+00  9.000E+00
      21     1     1     2   502   511 -1.843744363E+00  7.934496953E+00  1.693905407E+00  8.320153286E+00  2.107342426E-08  0.00000E+00  9.000E+00
</event>
<event>
      7    666  1.00000E+00  6.91972E+00 -1.00000E+00  2.16192E-01
       1    -1     0     0   501     0  0.000000000E+00  0.000000000E+00  2.654163627E+01  2.654163627E+01  0.000000000E+00  0.00000E+00  9.000E+00
      -2    -1     0     0     0   502  0.000000000E+00  0.000000000E+00 -1.403209512E+02  1.403209512E+02  0.000000000E+00  0.00000E+00  9.000E+00
     -24     2     1     2     0     0 -6.801109276E+00  9.651878074E-01 -1.225659879E+02  1.480789911E+02  8.281171124E+01  0.00000E+00  9.000E+00
      11     1     3     3     0     0 -2.832660881E+01  3.318017600E+01 -7.459016578E+01  8.641188389E+01  5.109989100E-04  0.00000E+00  9.000E+00
     -12     1     3     3     0     0  2.152549954E+01 -3.221498819E+01 -4.797582216E+01  6.166710717E+01  6.743495762E-07  0.00000E+00  9.000E+00
      21     1     1     2   512   502  1.089926862E+01  9.361980774E-01  9.135629602E+00  1.425237704E+01  2.384185791E-07  0.00000E+00  9.000E+00
      21     1     1     2   501   512 -4.098159340E+00 -1.901385885E+00 -3.489566002E-01  4.531219369E+00  5.600339315E-08  0.00000E+00  9.000E+00
</event>
<event>
      7    666  1.00000E+00  4.36347E+00 -1.00000E+00  2.54776E-01
       2    -1     0     0   501     0  0.000000000E+00  0.000000000E+00  6.151001240E+02  6.151001240E+02  0.000000000E+00  0.00000E+00  9.000E+00
      -1    -1     0     0     0   502  0.000000000E+00  0.000000000E+00 -5.231616629E+00  5.231616629E+00  0.000000000E+00  0.00000E+00  9.000E+00
      24     2     1     2     0     0  2.031505749E+01 -1.141799443E+01  3.667566023E+02  3.760896750E+02  7.993726367E+01  0.00000E+00  9.000E+00
     -11     1     3     3     0     0  2.751875080E+01  2.794340421E+01  1.239123394E+02  1.299707019E+02  5.109989100E-04  0.00000E+00  9.000E+00
      12     1     3     3     0     0 -7.203693311E+00 -3.936139864E+01  2.428442629E+02  2.461189731E+02  4.672030912E-06  0.00000E+00  9.000E+00
       3     1     1     2   501     0 -5.085743535E+00  4.269739170E+00  7.108530065E+01  7.139478573E+01  0.000000000E+00  0.00000E+00  9.000E+00
      -3     1     1     2     0   502 -1.522931396E+01  7.148255258E+00  1.720266044E+02  1.728472799E+02  0.000000000E+00  0.00000E+00  9.000E+00
</event>
<event>
      7    666  1.00000E+00  1.96225E+01 -1.00000E+00  1.67013E-01
      21    -1     0     0   511   501  0.000000000E+00  0.000000000E+00  2.241739838E+02  2.241739838E+02  0.000000000E+00  0.00000E+00  9.000E+00
       3    -1     0     0   501     0  0.000000000E+00  0.000000000E+00 -9.822376846E+01  9.822376846E+01  0.000000000E+00  0.00000E+00  9.000E+00
     -24     2     1     2     0     0  3.965416034E+01 -8.028421867E-01 -2.880823569E+01  9.705976311E+01  8.377103428E+01  0.00000E+00  9.000E+00
      11     1     3     3     0     0  5.327984008E+01  2.071171449E+01 -3.945440256E+01  6.945765874E+01  5.109989100E-04  0.00000E+00  9.000E+00
     -12     1     3     3     0     0 -1.362567974E+01 -2.151455668E+01  1.064616687E+01  2.760210438E+01  1.272806913E-06  0.00000E+00  9.000E+00
       4     1     1     2   502     0 -2.960060412E+01 -1.604848037E+01 -2.660656543E+01  4.291455243E+01  0.000000000E+00  0.00000E+00  9.000E+00
      21     1     1     2   511   502 -1.005355622E+01  1.685132256E+01  1.813650165E+02  1.824234367E+02  0.000000000E+00  0.00000E+00  9.000E+00
</event>
<event>
      7    666  1.00000E+00  3.80811E+00 -1.00000E+00  2.68492E-01
       4    -1     0     0   501     0  0.000000000E+00  0.000000000E+00  9.234452143E+01  9.234452143E+01  0.000000000E+00  0.00000E+00  9.000E+00
      -3    -1     0     0     0   511  0.000000000E+00  0.000000000E+00 -2.337773638E+01  2.337773638E+01  0.000000000E+00  0.00000E+00  9.000E+00
      24     2     1     2     0     0 -7.681185680E+00 -7.904658710E+00  6.445814262E+01  1.018530137E+02  7.808777120E+01  0.00000E+00  9.000E+00
     -11     1     3     3     0     0  1.165408975E+01  1.682905125E+00 -1.525450794E+01  1.927044343E+01  5.109989100E-04  0.00000E+00  9.000E+00
      12     1     3     3     0     0 -1.933527543E+01 -9.587563835E+00  7.971265057E+01  8.258257029E+01  2.336015456E-06  0.00000E+00  9.000E+00
      21     1     1     2   501   502  4.125418987E+00  6.541491754E+00  5.991039620E+00  9.782778333E+00  2.384185791E-07  0.00000E+00  9.000E+00
      21     1     1     2   502   511  3.555766693E+00  1.363166956E+00 -1.482397187E+00  4.086465752E+00  9.185692672E-08  0.00000E+00  9.000E+00
</event>
<event>
      7    666  1.00000E+00  2.52022E+01 -1.00000E+00  1.58452E-01
       2    -1     0     0   501     0  0.000000000E+00  0.000000000E+00  4.155644190E+02  4.155644190E+02  0.000000000E+00  0.00000E+00  9.000E+00
      21    -1     0     0   502   501  0.000000000E+00  0.000000000E+00 -2.072047009E+01  2.072047009E+01  0.000000000E+00  0.00000E+00  9.000E+00
      24     2     1     2     0     0  1.386341421E+01  1.887942656E+01  3.953159087E+02  4.038257577E+02  7.906925999E+01  0.00000E+00  9.000E+00
     -11     1     3     3     0     0  2.249535876E+01 -2.120743027E+01  2.746109766E+02  2.763457702E+02  5.109989100E-04  0.00000E+00  9.000E+00
      12     1     3     3     0     0 -8.631944554E+00  4.008685683E+01  1.207049321E+02  1.274799874E+02  1.907348633E-06  0.00000E+00  9.000E+00
       1     1     1     2   511     0 -1.295565518E+01 -1.629158542E+01  8.941555210E+00  2.265427479E+01  0.000000000E+00  0.00000E+00  9.000E+00
      21     1     1     2   502   511 -9.077590266E-01 -2.587841139E+00 -9.413515027E+00  9.804856622E+00  1.690083370E-06  0.00000E+00  9.000E+00
</event>
<event>
      7    666  1.00000E+00  3.58822E+01 -1.00000E+00  1.47796E-01
      21    -1     0     0   512   501  0.000000000E+00  0.000000000E+00  2.589807698E+02  2.589807698E+02  0.000000000E+00  0.00000E+00  9.000E+00
       2    -1     0     0   501     0  0.000000000E+00  0.000000000E+00 -2.918233480E+02  2.918233480E+02  0.000000000E+00  0.00000E+00  9.000E+00
      24     2     1     2     0     0 -3.061945633E+01  1.046816274E+01 -1.943283079E+02  2.134413831E+02  8.213768453E+01  0.00000E+00  9.000E+00
     -11     1     3     3     0     0 -1.034279455E+01 -9.485938077E+00 -1.818263435E+02  1.823671451E+02  5.109989100E-04  0.00000E+00  9.000E+00
      12     1     3     3     0     0 -2.027666177E+01  1.995410082E+01 -1.250196440E+01  3.107423798E+01  3.769728732E-07  0.00000E+00  9.000E+00
       1     1     1     2   502     0  6.614137030E+01 -1.554055733E+01 -7.324512116E+01  9.990514282E+01  0.000000000E+00  0.00000E+00  9.000E+00
      21     1     1     2   512   502 -3.552191398E+01  5.072394587E+00  2.347308509E+02  2.374575919E+02  0.000000000E+00  0.00000E+00  9.000E+00
</event>
<event>
      7    666  1.00000E+00  1.71644E+01 -1.00000E+00  1.71996E-01
       3    -1     0     0   502     0  0.000000000E+00  0.000000000E+00  8.163487346E+01  8.163487346E+01  0.000000000E+00  0.00000E+00  9.000E+00
       1    -1     0     0   501     0  0.000000000E+00  0.000000000E+00 -4.964238863E+01  4.964238863E+01  0.000000000E+00  0.00000E+00  9.000E+00
     -24     2     1     2     0     0 -1.087853766E+01  5.861608110E+00 -1.048604230E+01  8.096790564E+01  7.932933650E+01  0.00000E+00  9.000E+00
      11     1     3     3     0     0 -2.027743018E+01  2.266500571E+00 -4.264310131E+01  4.727309265E+01  5.109989100E-04  0.00000E+00  9.000E+00
     -12     1     3     3     0     0  9.398892524E+00  3.595107539E+00  3.215705901E+01  3.369481300E+01  0.000000000E+00  0.00000E+00  9.000E+00
       2     1     1     2   502     0  8.450474307E-01  8.064874144E+00  6.310773971E+00  1.027531840E+01  0.000000000E+00  0.00000E+00  9.000E+00
       3     1     1     2   501     0  1.003349023E+01 -1.392648225E+01  3.616775315E+01  4.003403805E+01  0.000000000E+00  0.00000E+00  9.000E+00
</event>
<event>
      7    666  1.00000E+00  1.21898E+01 -1.00000E+00  1.86262E-01
       1    -1     0     0   501     0  0.000000000E+00  0.000000000E+00  1.154485315E+02  1.154485315E+02  0.000000000E+00  0.00000E+00  9.000E+00
      -2    -1     0     0     0   502  0.000000000E+00  0.000000000E+00 -4.141437708E+01  4.141437708E+01  0.000000000E+00  0.00000E+00  9.000E+00
     -24     2     1     2     0     0 -7.707893060E+00 -2.254565949E+00  1.003620690E+02  1.290215967E+02  8.068167600E+01  0.00000E+00  9.000E+00
      11     1     3     3     0     0 -1.561131300E+01  3.682852488E+01  6.134104657E+01  7.323098615E+01  5.109989100E-04  0.00000E+00  9.000E+00
     -12     1     3     3     0     0  7.903419937E+00 -3.908309083E+01  3.902102240E+01  5.579061054E+01  0.000000000E+00  0.00000E+00  9.000E+00
       3     1     1     2   501     0  5.917930716E-01 -1.025958518E+00 -2.712074612E+00  2.959418629E+00  0.000000000E+00  0.00000E+00  9.000E+00
      -3     1     1     2     0   502  7.116099989E+00  3.280524467E+00 -2.361583990E+01  2.488189329E+01  0.000000000E+00  0.00000E+00  9.000E+00
</event>
<event>
      7    666  1.00000E+00  8.97422E+00 -1.00000E+00  2.01290E-01
       2    -1     0     0   512     0  0.000000000E+00  0.000000000E+00  8.675196291E+01  8.675196291E+01  0.000000000E+00  0.00000E+00  9.000E+00
      21    -1     0     0   502   501  0.000000000E+00  0.000000000E+00 -1.211526587E+02  1.211526587E+02  0.000000000E+00  0.00000E+00  9.000E+00
      24     2     1     2     0     0 -5.157722927E+01 -2.021766575E+01  7.780006345E+00  1.028735662E+02  8.633352495E+01  0.00000E+00  9.000E+00
     -11     1     3     3     0     0 -3.114678163E+01 -4.905141238E+01 -1.601433002E+01  6.027123550E+01  5.109989100E-04  0.00000E+00  9.000E+00
      12     1     3     3     0     0 -2.043044764E+01  2.883374663E+01  2.379433637E+01  4.260233067E+01  4.768371582E-07  0.00000E+00  9.000E+00
       1     1     1     2   502     0  6.027445548E+01  2.243011211E+01 -5.815591830E+01  8.670773175E+01  0.000000000E+00  0.00000E+00  9.000E+00
      21     1     1     2   512   501 -8.697226216E+00 -2.212446368E+00  1.597521612E+01  1.832332374E+01  3.371747881E-07  0.00000E+00  9.000E+00
</event>
<event>
      7    666  1.00000E+00  5.61566E+00 -1.00000E+00  2.29950E-01
      21    -1     0     0   511   502  0.000000000E+00  0.000000000E+00  1.718133083E+01  1.718133083E+01  0.000000000E+00  0.00000E+00  9.000E+00
      21    -1     0     0   502   501  0.000000000E+00  0.000000000E+00 -4.770841052E+02  4.770841052E+02  0.000000000E+00  0.00000E+00  9.000E+00
     -24     2     1     2     0     0 -8.280140169E+00 -2.510433813E+00 -1.947783523E+02  2.110053090E+02  8.068315136E+01  0.00000E+00  9.000E+00
      11     1     3     3     0     0 -2.802006051E+01  6.271480713E+00 -1.851302148E+02  1.873436726E+02  5.109989100E-04  0.00000E+00  9.000E+00
     -12     1     3     3     0     0  1.973992034E+01 -8.781914527E+00 -9.648137517E+00  2.366163637E+01  2.384185791E-07  0.00000E+00  9.000E+00
      -3     1     1     2     0   501  2.694493971E+00  3.090230877E+00 -2.733059880E+02  2.733367390E+02  0.000000000E+00  0.00000E+00  9.000E+00
       4     1     1     2   511     0  5.585646197E+00 -5.797970637E-01  8.181565919E+00  9.923387978E+00  0.000000000E+00  0.00000E+00  9.000E+00
</event>
<event>
      7    666  1.00000E+00  1.20717E+01 -1.00000E+00  1.86703E-01
      -1    -1     0     0     0   502  0.000000000E+00  0.000000000E+00  4.157796101E+01  4.157796101E+01  0.000000000E+00  0.00000E+00  9.000E+00
      21    -1     0     0   502   501  0.000000000E+00  0.000000000E+00 -1.054531301E+02  1.054531301E+02  0.000000000E+00  0.00000E+00  9.000E+00
      24     2     1     2     0     0 -7.210190882E+00  1.201890664E+01 -2.623992033E+00  8.361379163E+01  8.238895464E+01  0.00000E+00  9.000E+00
     -11     1     3     3     0     0 -1.182161006E+01  1.757048829E+01  3.738106301E+01  4.296296539E+01  5.109989100E-04  0.00000E+00  9.000E+00
      12     1     3     3     0     0  4.611419181E+00 -5.551581647E+00 -4.000505504E+01  4.065082625E+01  8.259061849E-07  0.00000E+00  9.000E+00
      -2     1     1     2     0   512  2.114999963E+00 -7.795014301E+00 -1.892000668E+01  2.057187705E+01  0.000000000E+00  0.00000E+00  9.000E+00
      21     1     1     2   512   501  5.095190919E+00 -4.223892338E+00 -4.233117043E+01  4.284542247E+01  2.286830675E-06  0.00000E+00  9.000E+00
</event>
<event>
      7    666  1.00000E+00  1.43209E+01 -1.00000E+00  1.79252E-01
       1    -1     0     0   502     0  0.000000000E+00  0.000000000E+00  5.892013247E+02  5.892013247E+02  0.000000000E+00  0.00000E+00  9.000E+00
      -2    -1     0     0     0   502  0.000000000E+00  0.000000000E+00 -4.008366822E+01  4.008366822E+01  0.000000000E+00  0.00000E+00  9.000E+00
     -24     2     1     2     0     0  1.114390843E+01  7.788759890E+00  3.343046397E+00  8.048013058E+01  7.925291152E+01  0.00000E+00  9.000E+00
      11     1     3     3     0     0 -8.761914944E+00 -2.583065834E+01  2.395848053E+01  3.630430902E+01  5.109989100E-04  0.00000E+00  9.000E+00
     -12     1     3     3     0     0  1.990582338E+01  3.361941823E+01 -2.061543414E+01  4.417582157E+01  1.066240300E-06  0.00000E+00  9.000E+00
      -1     1     1     2     0   501  2.997378633E+00 -1.004977872E+01  1.797237556E+01  2.080837846E+01  0.000000000E+00  0.00000E+00  9.000E+00
       1     1     1     2   501     0 -1.414128707E+01  2.261018834E+00  5.278022345E+02  5.279964838E+02  0.000000000E+00  0.00000E+00  9.000E+00
</event>
<event>
      7    666  1.00000E+00  2.32626E+01 -1.00000E+00  1.61091E-01
      21    -1     0     0   502   511  0.000000000E+00  0.000000000E+00  3.102644569E+01  3.102644569E+01  0.000000000E+00  0.00000E+00  9.000E+00
       1    -1     0     0   501     0  0.000000000E+00  0.000000000E+00 -1.944215613E+02  1.944215613E+02  0.000000000E+00  0.00000E+00  9.000E+00
     -24     2     1     2     0     0  9.955262349E+00  2.812234451E+01 -7.022678322E+01  1.106108874E+02  8.008117014E+01  0.00000E+00  9.000E+00
      11     1     3     3     0     0 -2.423637215E+01 -3.812947602E+00  1.933641613E+00  2.461055210E+01  5.109989100E-04  0.00000E+00  9.000E+00
     -12     1     3     3     0     0  3.419163450E+01  3.193529212E+01 -7.216042484E+01  8.600033526E+01  0.000000000E+00  0.00000E+00  9.000E+00
       2     1     1     2   502     0 -2.665188177E+01 -1.192438840E+01 -8.549232679E+01  9.034075371E+01  0.000000000E+00  0.00000E+00  9.000E+00
      21     1     1     2   501   511  1.669661942E+01 -1.619795611E+01 -7.676005616E+00  2.449636595E+01  1.192092896E-07  0.00000E+00  9.000E+00
</event>
<event>
      7    666  1.00000E+00  1.15518E+01 -1.00000E+00  1.88729E-01
       2    -1     0     0   501     0  0.000000000E+00  0.000000000E+00  5.492742669E+02  5.492742669E+02  0.000000000E+00  0.00000E+00  9.000E+00
      -1    -1     0     0     0   502  0.000000000E+00  0.000000000E+00 -4.337646880E+00  4.337646880E+00  0.000000000E+00  0.00000E+00  9.000E+00
      24     2     1     2     0     0 -1.982322433E+00 -1.309444122E+01  4.821687522E+02  4.889308067E+02  7.994519483E+01  0.00000E+00  9.000E+00
     -11     1     3     3     0     0 -1.140704460E+01  6.424031082E+00  1.054778714E+01  1.681203901E+01  5.109989100E-04  0.00000E+00  9.000E+00
      12     1     3     3     0     0  9.424722168E+00 -1.951847230E+01  4.716209651E+02  4.721187677E+02  7.629394531E-06  0.00000E+00  9.000E+00
      21     1     1     2   501   511 -6.137587416E-01  5.202906290E+00  4.180666153E+01  4.213364311E+01  0.000000000E+00  0.00000E+00  9.000E+00
      21     1     1     2   511   502  2.596081174E+00  7.891534928E+00  2.096120629E+01  2.254746394E+01  5.840038640E-07  0.00000E+00  9.000E+00
</event>
<event>
      7    666  1.00000E+00  9.84583E+01 -1.00000E+00  1.24109E-01
      21    -1     0     0   502   501  0.000000000E+00  0.000000000E+00  2.317615781E+01  2.317615781E+01  0.000000000E+00  0.00000E+00  9.000E+00
       2    -1     0     0   501     0  0.000000000E+00  0.000000000E+00 -3.668855512E+02  3.668855512E+02  0.000000000E+00  0.00000E+00  9.000E+00
      24     2     1     2     0     0 -2.235334634E+00  2.271256067E+00 -2.437428898E+02  2.556143656E+02  7.692822790E+01  0.00000E+00  9.000E+00
     -11     1     3     3     0     0  6.932254847E-01  3.950495627E+01 -1.328355837E+02  1.385872087E+02  5.109989100E-04  0.00000E+00  9.000E+00
      12     1     3     3     0     0 -2.928560119E+00 -3.723370020E+01 -1.109073061E+02  1.170271568E+02  1.348699152E-06  0.00000E+00  9.000E+00
       1     1     1     2   512     0 -4.497136166E+00 -4.388941644E+01 -6.992320703E+01  8.267865499E+01  0.000000000E+00  0.00000E+00  9.000E+00
      21     1     1     2   502   512  6.732470800E+00  4.161816037E+01 -3.004329663E+01  5.176868850E+01  2.780414531E-06  0.00000E+00  9.000E+00
</event>
<event>
      7    666  1.00000E+00  2.13188E+02 -1.00000E+00  1.10630E-01
       2    -1     0     0   501     0  0.000000000E+00  0.000000000E+00  1.460121175E+03  1.460121175E+03  0.000000000E+00  0.00000E+00  9.000E+00
      21    -1     0     0   502   501  0.000000000E+00  0.000000000E+00 -6.637145479E+01  6.637145479E+01  0.000000000E+00  0.00000E+00  9.000E+00
      24     2     1     2     0     0  3.188204458E+01 -2.236157611E-01  1.438544856E+03  1.440977520E+03  7.738473449E+01  0.00000E+00  9.000E+00
     -11     1     3     3     0     0 -1.659368509E+01  2.033102973E+01  2.771443605E+02  2.783840831E+02  5.109989100E-04  0.00000E+00  9.000E+00
      12     1     3     3     0     0  4.847572967E+01 -2.055464549E+01  1.161400495E+03  1.162593437E+03  1.525878906E-05  0.00000E+00  9.000E+00
       1     1     1     2   512     0  6.923462903E+00  1.487474040E+01  8.098639278E+00  1.829699972E+01  0.000000000E+00  0.00000E+00  9.000E+00
      21     1     1     2   502   512 -3.880550748E+01 -1.465112464E+01 -5.289377484E+01  6.721810977E+01  9.344061824E-06  0.00000E+00  9.000E+00
</event>
<event>
      7    666  1.00000E+00  5.05285E+00 -1.00000E+00  2.37634E-01
      21    -1     0     0   511   502  0.000000000E+00  0.000000000E+00  1.371937287E+01  1.371937287E+01  0.000000000E+00  0.00000E+00  9.000E+00
       1    -1     0     0   501     0  0.000000000E+00  0.000000000E+00 -1.071284533E+03  1.071284533E+03  0.000000000E+00  0.00000E+00  9.000E+00
     -24     2     1     2     0     0  4.224454500E+00  4.614447641E-01 -6.866639831E+02  6.914874583E+02  8.142125262E+01  0.00000E+00  9.000E+00
      11     1     3     3     0     0  5.429719462E+00  1.214814009E+01 -6.743014595E+02  6.744327376E+02  5.109989100E-04  0.00000E+00  9.000E+00
     -12     1     3     3     0     0 -1.205264962E+00 -1.168669533E+01 -1.236252356E+01  1.705472076E+01  1.130918620E-06  0.00000E+00  9.000E+00
      21     1     1     2   501   502 -9.098118505E+00 -1.795127520E+00 -3.815851813E+02  3.816978502E+02  7.629394531E-06  0.00000E+00  9.000E+00
       4     1     1     2   511     0  4.873664005E+00  1.333682756E+00  1.068400397E+01  1.181859769E+01  0.000000000E+00  0.00000E+00  9.000E+00
</event>
<event>
      7    666  1.00000E+00  1.46670E+00 -1.00000E+00  4.52117E-01
       3    -1     0     0   501     0  0.000000000E+00  0.000000000E+00  2.767802271E+02  2.767802271E+02  0.000000000E+00  0.00000E+00  9.000E+00
      21    -1     0     0   502   511  0.000000000E+00  0.000000000E+00 -1.680519249E+01  1.680519249E+01  0.000000000E+00  0.00000E+00  9.000E+00
     -24     2     1     2     0     0  1.371009659E+01  3.173911812E+00  2.636757401E+02  2.762022263E+02  8.102304230E+01  0.00000E+00  9.000E+00
      11     1     3     3     0     0  1.540494273E+01 -2.312264616E+01  2.372918512E+02  2.389129375E+02  5.109989100E-04  0.00000E+00  9.000E+00
     -12     1     3     3     0     0 -1.694846138E+00  2.629655798E+01  2.638388893E+01  3.728928881E+01  0.000000000E+00  0.00000E+00  9.000E+00
       4     1     1     2   502     0 -1.411590421E+01 -1.764469176E+00 -5.329542831E+00  1.519131758E+01  0.000000000E+00  0.00000E+00  9.000E+00
      21     1     1     2   501   511  4.058076206E-01 -1.409442636E+00  1.628837277E+00  2.191875736E+00  3.650024150E-08  0.00000E+00  9.000E+00
</event>
<event>
      7    666  1.00000E+00  3.69075E+00 -1.00000E+00  2.71870E-01
       1    -1     0     0   512     0  0.000000000E+00  0.000000000E+00  1.318610494E+02  1.318610494E+02  0.000000000E+00  0.00000E+00  9.000E+00
      21    -1     0     0   502   501  0.000000000E+00  0.000000000E+00 -2.620705092E+01  2.620705092E+01  0.000000000E+00  0.00000E+00  9.000E+00
     -24     2     1     2     0     0 -9.251725706E-01  3.521712302E+00  8.178494997E+01  1.138315616E+02  7.909227503E+01  0.00000E+00  9.000E+00
      11     1     3     3     0     0  2.282099580E+01 -8.559562374E+00  8.364516433E+01  8.712392022E+01  5.109989100E-04  0.00000E+00  9.000E+00
     -12     1     3     3     0     0 -2.374616837E+01  1.208127468E+01 -1.860214365E+00  2.670764137E+01  4.612144095E-07  0.00000E+00  9.000E+00
       2     1     1     2   502     0  2.002399788E+00 -7.051757366E+00 -8.746863768E+00  1.141247180E+01  0.000000000E+00  0.00000E+00  9.000E+00
      21     1     1     2   512   501 -1.077227217E+00  3.530045065E+00  3.261591231E+01  3.282406697E+01  4.768371582E-07  0.00000E+00  9.000E+00
</event>
<event>
      7    666  1.00000E+00  1.46179E+01 -1.00000E+00  1.78398E-01
      -1    -1     0     0     0   501  0.000000000E+00  0.000000000E+00  1.549445005E+02  1.549445005E+02  0.000000000E+00  0.00000E+00  9.000E+00
       4    -1     0     0   501     0  0.000000000E+00  0.000000000E+00 -8.130990801E+01  8.130990801E+01  0.000000000E+00  0.00000E+00  9.000E+00
      24     2     1     2     0     0  2.815856619E+01  3.505632991E+01 -3.405461876E+00  9.201611122E+01  8.020920419E+01  0.00000E+00  9.000E+00
     -11     1     3     3     0     0 -2.390585811E+01  2.485617827E+01  1.241536735E+01  3.665325356E+01  5.109989100E-04  0.00000E+00  9.000E+00
      12     1     3     3     0     0  5.206442430E+01  1.020015165E+01 -1.582082923E+01  5.536285766E+01  5.057621821E-07  0.00000E+00  9.000E+00
       3     1     1     2   502     0 -2.284296623E+01 -4.867351166E+01 -1.109433562E+01  5.489987364E+01  0.000000000E+00  0.00000E+00  9.000E+00
      -1     1     1     2     0   502 -5.315599961E+00  1.361718175E+01  8.813438997E+01  8.933842364E+01  0.000000000E+00  0.00000E+00  9.000E+00
</event>
<event>
      7    666  1.00000E+00  8.96094E+00 -1.00000E+00  2.01369E-01
      21    -1     0     0   501   511  0.000000000E+00  0.000000000E+00  3.463642946E+01  3.463642946E+01  0.000000000E+00  0.00000E+00  9.000E+00
      21    -1     0     0   502   501  0.000000000E+00  0.000000000E+00 -1.734601758E+02  1.734601758E+02  0.000000000E+00  0.00000E+00  9.000E+00
      24     2     1     2     0     0 -1.281432563E+01  4.800885281E+00 -6.461836103E+01  1.047860041E+02  8.134690301E+01  0.00000E+00  9.000E+00
     -11     1     3     3     0     0  3.448776104E+01  6.740910449E+00 -2.823488227E+01  4.507831088E+01  5.109989100E-04  0.00000E+00  9.000E+00
      12     1     3     3     0     0 -4.730208667E+01 -1.940025168E+00 -3.638347876E+01  5.970769320E+01  8.259061849E-07  0.00000E+00  9.000E+00
       1     1     1     2   502     0  1.838661550E+01 -1.181857988E+01 -8.586615107E+01  8.860441501E+01  0.000000000E+00  0.00000E+00  9.000E+00
      -2     1     1     2     0   511 -5.572289863E+00  7.017694602E+00  1.166076579E+01  1.470618614E+01  0.000000000E+00  0.00000E+00  9.000E+00
</event>
<event>
      7    666  1.00000E+00  2.95689E+00 -1.00000E+00  2.98647E-01
      -1    -1     0     0     0   502  0.000000000E+00  0.000000000E+00  2.904866832E+00  2.904866832E+00  0.000000000E+00  0.00000E+00  9.000E+00
       2    -1     0     0   501     0  0.000000000E+00  0.000000000E+00 -7.081958143E+02  7.081958143E+02  0.000000000E+00  0.00000E+00  9.000E+00
      24     2     1     2     0     0 -5.220706881E+00 -5.250074165E+00 -6.060814893E+02  6.114515613E+02  8.051969318E+01  0.00000E+00  9.000E+00
     -11     1     3     3     0     0 -8.092041433E+00 -2.694718974E+01 -7.804624841E+01  8.296293787E+01  5.109989100E-04  0.00000E+00  9.000E+00
      12     1     3     3     0     0  2.871334553E+00  2.169711557E+01 -5.280352410E+02  5.284886234E+02  7.629394531E-06  0.00000E+00  9.000E+00
      21     1     1     2   501   512  6.368748472E+00  4.025818676E+00 -7.357481806E+01  7.395959726E+01  1.348699152E-06  0.00000E+00  9.000E+00
      21     1     1     2   512   502 -1.148041591E+00  1.224255489E+00 -2.563464001E+01  2.568952256E+01  3.371747881E-07  0.00000E+00  9.000E+00
</event>
<event>
      7    666  1.00000E+00  1.07451E+01 -1.00000E+00  1.92161E-01
      -4    -1     0     0     0   502  0.000000000E+00  0.000000000E+00  2.009156993E+01  2.009156993E+01  0.000000000E+00  0.00000E+00  9.000E+00
       3    -1     0     0   512     0  0.000000000E+00  0.000000000E+00 -2.258740884E+02  2.258740884E+02  0.000000000E+00  0.00000E+00  9.000E+00
     -24     2     1     2     0     0  2.396422816E+01  4.225521353E+00 -7.131154778E+01  1.088606890E+02  7.856954559E+01  0.00000E+00  9.000E+00
      11     1     3     3     0     0  3.402195321E+01  3.251138414E+01 -6.116240068E+01  7.717073704E+01  5.109989100E-04  0.00000E+00  9.000E+00
     -12     1     3     3     0     0 -1.005772504E+01 -2.828586279E+01 -1.014914711E+01  3.168995193E+01  7.251217997E-07  0.00000E+00  9.000E+00
      21     1     1     2   501   502 -1.321942562E+01 -4.307121365E+00 -4.812885702E+01  5.009682012E+01  0.000000000E+00  0.00000E+00  9.000E+00
      21     1     1     2   512   501 -1.074480254E+01  8.160001224E-02 -8.634211366E+01  8.700814923E+01  9.536743164E-07  0.00000E+00  9.000E+00
</event>
<event>
      7    666  1.00000E+00  5.47628E+00 -1.00000E+00  2.31731E-01
      21    -1     0     0   511   501  0.000000000E+00  0.000000000E+00  4.846656290E+00  4.846656290E+00  0.000000000E+00  0.00000E+00  9.000E+00
       2    -1     0     0   501     0  0.000000000E+00  0.000000000E+00 -7.731621932E+02  7.731621932E+02  0.000000000E+00  0.00000E+00  9.000E+00
      24     2     1     2     0     0 -9.415863825E+00  1.293314410E+01 -5.391268835E+02  5.453318134E+02  8.045536348E+01  0.00000E+00  9.000E+00
     -11     1     3     3     0     0  3.187976285E+01 -4.722803673E+00 -3.219958933E+02  3.236046654E+02  5.109989100E-04  0.00000E+00  9.000E+00
      12     1     3     3     0     0 -4.129562668E+01  1.765594777E+01 -2.171309902E+02  2.217271481E+02  4.672030912E-06  0.00000E+00  9.000E+00
       1     1     1     2   502     0  9.481872067E+00 -7.457259053E+00 -2.260368907E+02  2.263585487E+02  0.000000000E+00  0.00000E+00  9.000E+00
      21     1     1     2   511   502 -6.600824144E-02 -5.475885047E+00 -3.151762658E+00  6.318487318E+00  3.039252468E-07  0.00000E+00  9.000E+00
</event>
<event>
      7    666  1.00000E+00  1.61841E+01 -1.00000E+00  1.74285E-01
      -4    -1     0     0     0   502  0.000000000E+00  0.000000000E+00  1.099421569E+02  1.099421569E+02  0.000000000E+00  0.00000E+00  9.000E+00
       3    -1     0     0   501     0  0.000000000E+00  0.000000000E+00 -4.572809438E+01  4.572809438E+01  0.000000000E+00  0.00000E+00  9.000E+00
     -24     2     1     2     0     0  6.537845205E+00 -9.469089575E+00 -8.296014046E+00  7.998267181E+01  7.871465470E+01  0.00000E+00  9.000E+00
      11     1     3     3     0     0 -4.579939125E+00  7.902934849E+00 -4.062260718E+01  4.163686390E+01  5.109989100E-04  0.00000E+00  9.000E+00
     -12     1     3     3     0     0  1.111778433E+01 -1.737202442E+01  3.232659313E+01  3.834580791E+01  0.000000000E+00  0.00000E+00  9.000E+00
      21     1     1     2   501   511 -1.061554089E+01 -5.544303079E-01  4.165525504E+01  4.299020091E+01  4.768371582E-07  0.00000E+00  9.000E+00
      21     1     1     2   511   502  4.077695681E+00  1.002351988E+01  3.085482155E+01  3.269737858E+01  6.743495762E-07  0.00000E+00  9.000E+00
</event>
<event>
      7    666  1.00000E+00  2.04182E+01 -1.00000E+00  1.65590E-01
      -2    -1     0     0     0   502  0.000000000E+00  0.000000000E+00  2.476958954E+02  2.476958954E+02  0.000000000E+00  0.00000E+00  9.000E+00
      21    -1     0     0   502   501  0.000000000E+00  0.000000000E+00 -1.235931389E+01  1.235931389E+01  0.000000000E+00  0.00000E+00  9.000E+00
     -24     2     1     2     0     0  8.468849492E+00  2.027748312E+00  2.309128255E+02  2.445072079E+02  7.992001351E+01  0.00000E+00  9.000E+00
      11     1     3     3     0     0 -1.520346725E+00 -3.397450304E+01  5.495850055E+01  6.462983130E+01  5.109989100E-04  0.00000E+00  9.000E+00
     -12     1     3     3     0     0  9.989196218E+00  3.600225135E+01  1.759543250E+02  1.798773766E+02  3.303624740E-06  0.00000E+00  9.000E+00
      -1     1     1     2     0   511  3.284684980E-01  4.132749811E+00  1.593457329E+00  4.441465840E+00  0.000000000E+00  0.00000E+00  9.000E+00
      21     1     1     2   511   501 -8.797317990E+00 -6.160498123E+00  2.830298657E+00  1.110653553E+01  1.067905001E-06  0.00000E+00  9.000E+00
</event>
<event>
      7    666  1.00000E+00  4.78028E+01 -1.00000E+00  1.40169E-01
      -2    -1     0     0     0   502  0.000000000E+00  0.000000000E+00  3.323705399E+02  3.323705399E+02  0.000000000E+00  0.00000E+00  9.000E+00
      21    -1     0     0   501   511  0.000000000E+00  0.000000000E+00 -1.338243708E+02  1.338243708E+02  0.000000000E+00  0.00000E+00  9.000E+00
     -24     2     1     2     0     0 -1.425502471E+01 -3.279683905E+01  2.522715828E+02  2.672629268E+02  8.068260126E+01  0.00000E+00  9.000E+00
      11     1     3     3     0     0 -4.671436682E+01 -1.644895447E+01  1.139685717E+02  1.242643775E+02  5.109989100E-04  0.00000E+00  9.000E+00
     -12     1     3     3     0     0  3.245934210E+01 -1.634788458E+01  1.383030111E+02  1.429985493E+02  2.697398305E-06  0.00000E+00  9.000E+00
      21     1     1     2   501   502  1.913806532E+01  8.034962757E+01 -1.018285323E+02  1.311158960E+02  6.031565972E-06  0.00000E+00  9.000E+00
      -1     1     1     2     0   511 -4.883040610E+00 -4.755278852E+01  4.810311846E+01  6.781608797E+01  0.000000000E+00  0.00000E+00  9.000E+00
</event>
<event>
      7    666  1.00000E+00  1.39989E+02 -1.00000E+00  1.17575E-01
      21    -1     0     0   502   501  0.000000000E+00  0.000000000E+00  9.157581306E+01  9.157581306E+01  0.000000000E+00  0.00000E+00  9.000E+00
       1    -1     0     0   501     0  0.000000000E+00  0.000000000E+00 -1.338100841E+02  1.338100841E+02  0.000000000E+00  0.00000E+00  9.000E+00
     -24     2     1     2     0     0 -5.008315027E+00  1.715069845E+01 -1.149824302E+02  1.432172687E+02  8.349249740E+01  0.00000E+00  9.000E+00
      11     1     3     3     0     0 -1.883048998E+01 -3.186316007E+00 -1.169968198E+02  1.185453323E+02  5.109989100E-04  0.00000E+00  9.000E+00
     -12     1     3     3     0     0  1.382217496E+01  2.033701446E+01  2.014389668E+00  2.467193636E+01  5.915592087E-07  0.00000E+00  9.000E+00
       2     1     1     2   512     0  3.160347922E+00 -4.071459323E+00 -2.529148615E+00  5.741182171E+00  0.000000000E+00  0.00000E+00  9.000E+00
      21     1     1     2   502   512  1.847967106E+00 -1.307923913E+01  7.527730777E+01  7.642744628E+01  3.162979880E-06  0.00000E+00  9.000E+00
</event>
<event>
      7    666  1.00000E+00  1.48736E+01 -1.00000E+00  1.77683E-01
      -1    -1     0     0     0   502  0.000000000E+00  0.000000000E+00  8.253601962E+01  8.253601962E+01  0.000000000E+00  0.00000E+00  9.000E+00
       2    -1     0     0   501     0  0.000000000E+00  0.000000000E+00 -1.386704295E+02  1.386704295E+02  0.000000000E+00  0.00000E+00  9.000E+00
      24     2     1     2     0     0 -3.134594051E-01  2.071775752E+01  6.034376644E+01  1.024085697E+02  8.010506389E+01  0.00000E+00  9.000E+00
     -11     1     3     3     0     0 -2.818808299E+01 -3.158500163E+00  5.925039867E+01  6.568983094E+01  5.109989100E-04  0.00000E+00  9.000E+00
      12     1     3     3     0     0  2.787462359E+01  2.387625769E+01  1.093367773E+00  3.671873873E+01  6.583548198E-07  0.00000E+00  9.000E+00
      21     1     1     2   511   502 -3.713667573E+00 -1.043049180E+01 -3.918398997E+01  4.071819687E+01  1.066240300E-06  0.00000E+00  9.000E+00
      21     1     1     2   501   511  4.027126978E+00 -1.028726572E+01 -7.729418639E+01  7.807968262E+01  2.132480600E-06  0.00000E+00  9.000E+00
</event>
<event>
      7    666  1.00000E+00  3.69845E+00 -1.00000E+00  2.71642E-01
       1    -1     0     0   512     0  0.000000000E+00  0.000000000E+00  7.355397055E+00  7.355397055E+00  0.000000000E+00  0.00000E+00  9.000E+00
      -2    -1     0     0     0   502  0.000000000E+00  0.000000000E+00 -3.771872883E+02  3.771872883E+02  0.000000000E+00  0.00000E+00  9.000E+00
     -24     2     1     2     0     0 -5.270699239E+00 -2.779737028E+00 -3.626112074E+02  3.714274531E+02  8.022442268E+01  0.00000E+00  9.000E+00
      11     1     3     3     0     0 -3.865028530E+01 -1.828485699E+01 -2.219421905E+02  2.260232654E+02  5.109989100E-04  0.00000E+00  9.000E+00
     -12     1     3     3     0     0  3.337958606E+01  1.550511997E+01 -1.406690169E+02  1.454041878E+02  1.907348633E-06  0.00000E+00  9.000E+00
      21     1     1     2   501   502  6.276778083E+00 -7.792472742E-01 -6.964456599E+00  9.407912900E+00  5.397430145E-07  0.00000E+00  9.000E+00
      21     1     1     2   512   501 -1.006078845E+00  3.558984303E+00 -2.562272018E-01  3.707319286E+00  7.413234093E-08  0.00000E+00  9.000E+00
</event>
<event>
      7    666  1.00000E+00  4.60409E+00 -1.00000E+00  2.49764E-01
      -1    -1     0     0     0   502  0.000000000E+00  0.000000000E+00  1.566959398E+01  1.566959398E+01  0.000000000E+00  0.00000E+00  9.000E+00
       2    -1     0     0   501     0  0.000000000E+00  0.000000000E+00 -1.936475025E+02  1.936475025E+02  0.000000000E+00  0.00000E+00  9.000E+00
      24     2     1     2     0     0 -2.394112896E+01  3.081541586E+00 -1.238912525E+02  1.495194928E+02  8.015212246E+01  0.00000E+00  9.000E+00
     -11     1     3     3     0     0 -3.875478181E+01 -2.077634980E+01 -3.471010851E+01  5.602125898E+01  5.109989100E-04  0.00000E+00  9.000E+00
      12     1     3     3     0     0  1.481365285E+01  2.385789138E+01 -8.918114395E+01  9.349823382E+01  1.348699152E-06  0.00000E+00  9.000E+00
      21     1     1     2   501   511  1.947089453E+01 -4.065347063E+00 -3.588202537E+01  4.102636378E+01  1.651812370E-06  0.00000E+00  9.000E+00
      21     1     1     2   511   502  4.470234430E+00  9.838054763E-01 -1.820463073E+01  1.877123994E+01  3.371747881E-07  0.00000E+00  9.000E+00
</event>
<event>
      7    666  1.00000E+00  2.54511E+00 -1.00000E+00  3.20204E-01
       1    -1     0     0   512     0  0.000000000E+00  0.000000000E+00  2.505160857E+02  2.505160857E+02  0.000000000E+00  0.00000E+00  9.000E+00
      -2    -1     0     0     0   502  0.000000000E+00  0.000000000E+00 -1.543129250E+01  1.543129250E+01  0.000000000E+00  0.00000E+00  9.000E+00
     -24     2     1     2     0     0  5.899297927E-01 -6.907372443E+00  9.534535336E+01  1.253405531E+02  8.106453002E+01  0.00000E+00  9.000E+00
      11     1     3     3     0     0 -3.112901221E+00 -3.836313403E+01  8.273478390E+01  9.124946396E+01  5.109989100E-04  0.00000E+00  9.000E+00
     -12     1     3     3     0     0  3.702831014E+00  3.145576159E+01  1.261056946E+01  3.409108911E+01  1.079486029E-06  0.00000E+00  9.000E+00
      21     1     1     2   501   502 -1.836634859E+00  4.688522180E+00  1.464493806E+01  1.548643531E+01  4.129530925E-07  0.00000E+00  9.000E+00
      21     1     1     2   512   501  1.246705066E+00  2.218850262E+00  1.250945018E+02  1.251203898E+02  1.348699152E-06  0.00000E+00  9.000E+00
</event>
<event>
      7    666  1.00000E+00  2.05222E+01 -1.00000E+00  1.65410E-01
      -2    -1     0     0     0   502  0.000000000E+00  0.000000000E+00  2.214844296E+01  2.214844296E+01  0.000000000E+00  0.00000E+00  9.000E+00
       1    -1     0     0   501     0  0.000000000E+00  0.000000000E+00 -1.453898716E+02  1.453898716E+02  0.000000000E+00  0.00000E+00  9.000E+00
     -24     2     1     2     0     0 -4.946405685E+00  9.348267190E+00 -1.272440904E+02  1.510379797E+02  8.068181786E+01  0.00000E+00  9.000E+00
      11     1     3     3     0     0 -9.743557263E+00 -2.433799513E+01 -1.096341193E+02  1.127249530E+02  5.109989100E-04  0.00000E+00  9.000E+00
     -12     1     3     3     0     0  4.797151578E+00  3.368626232E+01 -1.760997115E+01  3.831302671E+01  4.768371582E-07  0.00000E+00  9.000E+00
      21     1     1     2   501   511  2.702878007E+00  2.647195919E+00  1.307086574E+00  4.002707966E+00  4.683802618E-07  0.00000E+00  9.000E+00
      21     1     1     2   511   502  2.243527678E+00 -1.199546311E+01  2.695575232E+00  1.249762687E+01  1.728020789E-06  0.00000E+00  9.000E+00
</event>
<event>
      7    666  1.00000E+00  8.01626E+00 -1.00000E+00  2.07489E-01
      21    -1     0     0   502   512  0.000000000E+00  0.000000000E+00  9.163713041E+01  9.163713041E+01  0.000000000E+00  0.00000E+00  9.000E+00
       1    -1     0     0   501     0  0.000000000E+00  0.000000000E+00 -2.886287708E+02  2.886287708E+02  0.000000000E+00  0.00000E+00  9.000E+00
     -24     2     1     2     0     0 -2.340883061E+01  2.217279006E+00 -2.208653915E+02  2.363620455E+02  8.082453652E+01  0.00000E+00  9.000E+00
      11     1     3     3     0     0 -4.711086786E+01 -4.734428112E+00 -1.947206276E+02  2.003945396E+02  5.109989100E-04  0.00000E+00  9.000E+00
     -12     1     3     3     0     0  2.370203724E+01  6.951707118E+00 -2.614476390E+01  3.596750590E+01  1.118282261E-06  0.00000E+00  9.000E+00
       2     1     1     2   502     0  2.712188794E+01  4.887195550E+00 -5.664177685E+01  6.299025615E+01  0.000000000E+00  0.00000E+00  9.000E+00
      21     1     1     2   501   512 -3.713057327E+00 -7.104474556E+00  8.051552796E+01  8.091359958E+01  2.336015456E-06  0.00000E+00  9.000E+00
</event>
<event>
      7    666  1.00000E+00  3.25709E+01 -1.00000E+00  1.50566E-01
       2    -1     0     0   501     0  0.000000000E+00  0.000000000E+00  3.261986867E+02  3.261986867E+02  0.000000000E+00  0.00000E+00  9.000E+00
      21    -1     0     0   502   501  0.000000000E+00  0.000000000E+00 -7.260948753E+00  7.260948753E+00  0.000000000E+00  0.00000E+00  9.000E+00
      24     2     1     2     0     0 -3.005179013E+00 -6.976388224E+00  2.076781597E+02  2.215000521E+02  7.664433428E+01  0.00000E+00  9.000E+00
     -11     1     3     3     0     0 -1.472389703E+01 -1.355989269E+01  8.299789765E+00  2.166911037E+01  5.109989100E-04  0.00000E+00  9.000E+00
      12     1     3     3     0     0  1.171871802E+01  6.583504470E+00  1.993783700E+02  1.998309418E+02  0.000000000E+00  0.00000E+00  9.000E+00
       1     1     1     2   512     0 -1.280297925E+00 -1.087025128E-01  1.940396143E+00  2.327255080E+00  0.000000000E+00  0.00000E+00  9.000E+00
      21     1     1     2   502   512  4.285476938E+00  7.085090737E+00  1.093191821E+02  1.096323282E+02  0.000000000E+00  0.00000E+00  9.000E+00
</event>
<event>
      7    666  1.00000E+00  9.67848E+00 -1.00000E+00  1.97353E-01
       1    -1     0     0   502     0  0.000000000E+00  0.000000000E+00  4.528395734E+02  4.528395734E+02  0.000000000E+00  0.00000E+00  9.000E+00
      -1    -1     0     0     0   502  0.000000000E+00  0.000000000E+00 -5.485340230E+01  5.485340230E+01  0.000000000E+00  0.00000E+00  9.000E+00
      24     2     1     2     0     0  1.614899947E+01 -3.532189639E+01 -1.370118308E+01  8.985040598E+01  7.985578556E+01  0.00000E+00  9.000E+00
     -11     1     3     3     0     0 -1.999953082E+01 -4.536015286E+01 -1.645496488E+01  5.223304098E+01  5.109989100E-04  0.00000E+00  9.000E+00
      12     1     3     3     0     0  3.614853029E+01  1.003825647E+01  2.753781801E+00  3.761736500E+01  9.875322298E-07  0.00000E+00  9.000E+00
      -2     1     1     2     0   501 -2.551577674E+01  3.775838883E+01  1.712287654E+02  1.771892798E+02  0.000000000E+00  0.00000E+00  9.000E+00
       1     1     1     2   501     0  9.366777267E+00 -2.436492441E+00  2.404585888E+02  2.406532899E+02  0.000000000E+00  0.00000E+00  9.000E+00
</event>
<event>
      7    666  1.00000E+00  3.48082E+01 -1.00000E+00  1.48654E-01
      21    -1     0     0   501   512  0.000000000E+00  0.000000000E+00  3.723890608E+02  3.723890608E+02  0.000000000E+00  0.00000E+00  9.000E+00
      -1    -1     0     0     0   502  0.000000000E+00  0.000000000E+00 -4.279069268E+01  4.279069268E+01  0.000000000E+00  0.00000E+00  9.000E+00
      24     2     1     2     0     0 -4.169923452E+00 -1.860589006E+01  1.454005697E+02  1.685915895E+02  8.317590386E+01  0.00000E+00  9.000E+00
     -11     1     3     3     0     0 -3.948972564E+01 -1.367107271E-01  4.139363629E+01  5.720917974E+01  5.109989100E-04  0.00000E+00  9.000E+00
      12     1     3     3     0     0  3.531980219E+01 -1.846917934E+01  1.040069334E+02  1.113824098E+02  1.348699152E-06  0.00000E+00  9.000E+00
      21     1     1     2   501   502 -2.998145511E+01  1.187589520E+01 -2.098447550E+01  3.847431286E+01  1.168007728E-06  0.00000E+00  9.000E+00
      -2     1     1     2     0   512  3.415137857E+01  6.729994861E+00  2.051822739E+02  2.081138511E+02  0.000000000E+00  0.00000E+00  9.000E+00
</event>
<event>
      7    666  1.00000E+00  5.84608E+00 -1.00000E+00  2.27159E-01
       2    -1     0     0   501     0  0.000000000E+00  0.000000000E+00  2.249772663E+02  2.249772663E+02  0.000000000E+00  0.00000E+00  9.000E+00
      21    -1     0     0   512   502  0.000000000E+00  0.000000000E+00 -4.331696611E+01  4.331696611E+01  0.000000000E+00  0.00000E+00  9.000E+00
      24     2     1     2     0     0  1.273343452E+01 -2.527613335E+00  2.148561056E+02  2.297570240E+02  8.035306348E+01  0.00000E+00  9.000E+00
     -11     1     3     3     0     0 -4.958936617E+00 -4.474857314E+00 -5.518826442E+00  8.664458778E+00  5.109989100E-04  0.00000E+00  9.000E+00
      12     1     3     3     0     0  1.769237114E+01  1.947243978E+00  2.203749320E+02  2.210925653E+02  0.000000000E+00  0.00000E+00  9.000E+00
      21     1     1     2   501   502 -6.891192725E+00  2.739395486E+00 -3.162633860E+01  3.248412101E+01  4.768371582E-07  0.00000E+00  9.000E+00
       1     1     1     2   512     0 -5.842241795E+00 -2.117821510E-01 -1.569466763E+00  6.053087377E+00  0.000000000E+00  0.00000E+00  9.000E+00
</event>
<event>
      7    666  1.00000E+00  2.40632E+00 -1.00000E+00  3.29145E-01
      -1    -1     0     0     0   512  0.000000000E+00  0.000000000E+00  3.874608838E+00  3.874608838E+00  0.000000000E+00  0.00000E+00  9.000E+00
       2    -1     0     0   501     0  0.000000000E+00  0.000000000E+00 -6.436611971E+02  6.436611971E+02  0.000000000E+00  0.00000E+00  9.000E+00
      24     2     1     2     0     0  6.230751146E+00 -1.800511347E+00 -4.798312824E+02  4.865920010E+02  8.057078748E+01  0.00000E+00  9.000E+00
     -11     1     3     3     0     0 -9.190068320E+00  2.709972668E+01 -7.245864682E+01  7.790448024E+01  5.109989100E-04  0.00000E+00  9.000E+00
      12     1     3     3     0     0  1.542081947E+01 -2.890023803E+01 -4.073726356E+02  4.086875208E+02  5.394796609E-06  0.00000E+00  9.000E+00
      21     1     1     2   501   502 -5.921709384E+00 -5.858777917E-01 -1.570875878E+02  1.572002549E+02  3.303624740E-06  0.00000E+00  9.000E+00
      21     1     1     2   502   512 -3.090417612E-01  2.386389138E+00 -2.867718079E+00  3.743550041E+00  1.632340424E-07  0.00000E+00  9.000E+00
</event>
<event>
      7    666  1.00000E+00  4.86249E+01 -1.00000E+00  1.39741E-01
      -2    -1     0     0     0   502  0.000000000E+00  0.000000000E+00  1.135104983E+02  1.135104983E+02  0.000000000E+00  0.00000E+00  9.000E+00
      21    -1     0     0   502   501  0.000000000E+00  0.000000000E+00 -3.973842621E+01  3.973842621E+01  0.000000000E+00  0.00000E+00  9.000E+00
     -24     2     1     2     0     0  1.112032176E+01 -3.380551173E-01  1.714830493E+01  8.184999265E+01  7.925642622E+01  0.00000E+00  9.000E+00
      11     1     3     3     0     0  4.170548287E+01 -9.121317070E+00 -5.139757700E+00  4.299956786E+01  5.109989100E-04  0.00000E+00  9.000E+00
     -12     1     3     3     0     0 -3.058516111E+01  8.783261953E+00  2.228806263E+01  3.885042479E+01  6.743495762E-07  0.00000E+00  9.000E+00
      -1     1     1     2     0   511 -2.477436320E-01  2.017925183E+01  2.043870235E+01  2.872288522E+01  0.000000000E+00  0.00000E+00  9.000E+00
      21     1     1     2   511   501 -1.087257813E+01 -1.984119671E+01  3.618506481E+01  4.267604665E+01  9.536743164E-07  0.00000E+00  9.000E+00
</event>
<event>
      7    666  1.00000E+00  6.41566E+00 -1.00000E+00  2.20972E-01
      -2    -1     0     0     0   511  0.000000000E+00  0.000000000E+00  7.558581938E+01  7.558581938E+01  0.000000000E+00  0.00000E+00  9.000E+00
      21    -1     0     0   502   501  0.000000000E+00  0.000000000E+00 -8.080693673E+01  8.080693673E+01  0.000000000E+00  0.00000E+00  9.000E+00
     -24     2     1     2     0     0  1.806993773E+01 -3.236047629E+01  2.101798731E+01  9.086603430E+01  8.025682104E+01  0.00000E+00  9.000E+00
      11     1     3     3     0     0  1.255185432E+01 -3.620603498E+01 -2.408750345E+01  4.526183644E+01  5.109989100E-04  0.00000E+00  9.000E+00
     -12     1     3     3     0     0  5.518083412E+00  3.845558691E+00  4.510549076E+01  4.560419786E+01  0.000000000E+00  0.00000E+00  9.000E+00
      -1     1     1     2     0   501 -1.764060577E+01  2.595919458E+01 -3.970426084E+01  5.061125452E+01  0.000000000E+00  0.00000E+00  9.000E+00
      21     1     1     2   502   511 -4.293319597E-01  6.401281703E+00  1.346515619E+01  1.491546729E+01  2.384185791E-07  0.00000E+00  9.000E+00
</event>
<event>
      7    666  1.00000E+00  3.06429E+02 -1.00000E+00  1.05277E-01
       2    -1     0     0   501     0  0.000000000E+00  0.000000000E+00  3.489571609E+02  3.489571609E+02  0.000000000E+00  0.00000E+00  9.000E+00
      21    -1     0     0   502   501  0.000000000E+00  0.000000000E+00 -8.583011004E+01  8.583011004E+01  0.000000000E+00  0.00000E+00  9.000E+00
      24     2     1     2     0     0  6.283993644E+01 -5.014172374E+01  1.921195896E+02  2.234361946E+02  8.093668066E+01  0.00000E+00  9.000E+00
     -11     1     3     3     0     0  4.738869431E+01  1.291312922E+01  8.572598775E+01  9.879970765E+01  5.109989100E-04  0.00000E+00  9.000E+00
      12     1     3     3     0     0  1.545124214E+01 -6.305485296E+01  1.063936019E+02  1.246364870E+02  1.348699152E-06  0.00000E+00  9.000E+00
       1     1     1     2   512     0  3.549028143E+00 -2.050281219E+01  1.061982355E+02  1.082174946E+02  0.000000000E+00  0.00000E+00  9.000E+00
      21     1     1     2   502   512 -6.638896459E+01  7.064453592E+01 -3.519077432E+01  1.031335817E+02  1.342785629E-05  0.00000E+00  9.000E+00
</event>
<event>
      7    666  1.00000E+00  1.80797E+01 -1.00000E+00  1.70026E-01
      21    -1     0     0   502   501  0.000000000E+00  0.000000000E+00  1.167770434E+01  1.167770434E+01  0.000000000E+00  0.00000E+00  9.000E+00
       1    -1     0     0   501     0  0.000000000E+00  0.000000000E+00 -2.868503174E+02  2.868503174E+02  0.000000000E+00  0.00000E+00  9.000E+00
     -24     2     1     2     0     0 -1.310044189E+00  4.909956262E+00 -2.789944712E+02  2.898423770E+02  7.838918713E+01  0.00000E+00  9.000E+00
      11     1     3     3     0     0  2.336914077E+01  5.410109921E+00 -2.524776457E+02  2.536145651E+02  5.109989100E-04  0.00000E+00  9.000E+00
     -12     1     3     3     0     0 -2.467918496E+01 -5.001536586E-01 -2.651682552E+01  3.622781197E+01  6.743495762E-07  0.00000E+00  9.000E+00
       2     1     1     2   512     0 -1.422679327E+00  2.891520567E-01 -3.350461150E-01  1.489926602E+00  0.000000000E+00  0.00000E+00  9.000E+00
      21     1     1     2   502   512  2.732723516E+00 -5.199108319E+00  4.156904323E+00  7.195718079E+00  2.086162567E-06  0.00000E+00  9.000E+00
</event>
<event>
      7    666  1.00000E+00  3.82524E+01 -1.00000E+00  1.46022E-01
       2    -1     0     0   501     0  0.000000000E+00  0.000000000E+00  1.537468488E+02  1.537468488E+02  0.000000000E+00  0.00000E+00  9.000E+00
      -1    -1     0     0     0   502  0.000000000E+00  0.000000000E+00 -4.090733232E+02  4.090733232E+02  0.000000000E+00  0.00000E+00  9.000E+00
      24     2     1     2     0     0  5.655456178E+00  1.888527559E+00  1.427559717E+02  1.642068769E+02  8.092638773E+01  0.00000E+00  9.000E+00
     -11     1     3     3     0     0  2.680034606E+01 -2.443076886E+01  3.181380442E+01  4.824146731E+01  5.109989100E-04  0.00000E+00  9.000E+00
      12     1     3     3     0     0 -2.114488988E+01  2.631929642E+01  1.109421673E+02  1.159654096E+02  1.907348633E-06  0.00000E+00  9.000E+00
       1     1     1     2   501     0  4.473762093E+00  5.263525895E+00 -8.300533222E+01  8.329228313E+01  0.000000000E+00  0.00000E+00  9.000E+00
      -1     1     1     2     0   502 -1.012921827E+01 -7.152053454E+00 -3.150771138E+02  3.153210120E+02  0.000000000E+00  0.00000E+00  9.000E+00
</event>
<event>
      7    666  1.00000E+00  5.88414E+00 -1.00000E+00  2.26716E-01
      -2    -1     0     0     0   502  0.000000000E+00  0.000000000E+00  5.662848365E+00  5.662848365E+00  0.000000000E+00  0.00000E+00  9.000E+00
       1    -1     0     0   501     0  0.000000000E+00  0.000000000E+00 -4.081046186E+02  4.081046186E+02  0.000000000E+00  0.00000E+00  9.000E+00
     -24     2     1     2     0     0  2.066715204E+00  9.412221816E+00 -3.640916492E+02  3.737734857E+02  8.397040172E+01  0.00000E+00  9.000E+00
      11     1     3     3     0     0  2.275819984E+01  3.930386062E+01 -2.479402248E+02  2.520656347E+02  5.109989100E-04  0.00000E+00  9.000E+00
     -12     1     3     3     0     0 -2.069148464E+01 -2.989163880E+01 -1.161514245E+02  1.217078511E+02  2.697398305E-06  0.00000E+00  9.000E+00
      21     1     1     2   512   502  6.204350726E-01 -4.573813472E+00 -8.872513253E+00  1.000130995E+01  1.685873940E-07  0.00000E+00  9.000E+00
      21     1     1     2   501   512 -2.687150276E+00 -4.838408343E+00 -2.947760781E+01  2.999267134E+01  0.000000000E+00  0.00000E+00  9.000E+00
</event>
<event>
      7    666  1.00000E+00  1.26794E+01 -1.00000E+00  1.84496E-01
      21    -1     0     0   502   511  0.000000000E+00  0.000000000E+00  1.853001033E+02  1.853001033E+02  0.000000000E+00  0.00000E+00  9.000E+00
      -2    -1     0     0     0   502  0.000000000E+00  0.000000000E+00 -4.698331170E+01  4.698331170E+01  0.000000000E+00  0.00000E+00  9.000E+00
     -24     2     1     2     0     0  9.538157806E+00 -1.610012873E+01  3.823362674E+01  9.321749767E+01  8.293070034E+01  0.00000E+00  9.000E+00
      11     1     3     3     0     0 -2.968686195E+01 -1.608024890E+01  4.191341908E+01  5.382024597E+01  5.109989100E-04  0.00000E+00  9.000E+00
     -12     1     3     3     0     0  3.922501976E+01 -1.987983436E-02 -3.679792343E+00  3.939725170E+01  1.135621004E-06  0.00000E+00  9.000E+00
      -1     1     1     2     0   501  2.324238867E+00  2.057802926E+01 -1.353677283E+01  2.474068700E+01  0.000000000E+00  0.00000E+00  9.000E+00
      21     1     1     2   501   511 -1.186239667E+01 -4.477900523E+00  1.136199377E+02  1.143252303E+02  1.348699152E-06  0.00000E+00  9.000E+00
</event>
<event>
      7    666  1.00000E+00  4.39699E+01 -1.00000E+00  1.42306E-01
       2    -1     0     0   501     0  0.000000000E+00  0.000000000E+00  1.461447802E+03  1.461447802E+03  0.000000000E+00  0.00000E+00  9.000E+00
      -1    -1     0     0     0   502  0.000000000E+00  0.000000000E+00 -3.548302791E+00  3.548302791E+00  0.000000000E+00  0.00000E+00  9.000E+00
      24     2     1     2     0     0  1.662087038E+01  5.587265159E+00  5.747610450E+02  5.807736302E+02  8.148791243E+01  0.00000E+00  9.000E+00
     -11     1     3     3     0     0  2.211324168E+01 -9.482136255E+00  4.729136152E+01  5.306014738E+01  5.109989100E-04  0.00000E+00  9.000E+00
      12     1     3     3     0     0 -5.492371308E+00  1.506940141E+01  5.274696835E+02  5.277134828E+02  1.078959322E-05  0.00000E+00  9.000E+00
       4     1     1     2   501     0 -2.334893327E+01  5.815178837E+00  3.104857524E+02  3.114167488E+02  0.000000000E+00  0.00000E+00  9.000E+00
      -4     1     1     2     0   502  6.728062894E+00 -1.140244400E+01  5.726527019E+02  5.728057258E+02  0.000000000E+00  0.00000E+00  9.000E+00
</event>
<event>
      7    666  1.00000E+00  3.24464E+01 -1.00000E+00  1.50678E-01
      21    -1     0     0   502   501  0.000000000E+00  0.000000000E+00  1.289546866E+02  1.289546866E+02  0.000000000E+00  0.00000E+00  9.000E+00
      -1    -1     0     0     0   512  0.000000000E+00  0.000000000E+00 -7.050750085E+01  7.050750085E+01  0.000000000E+00  0.00000E+00  9.000E+00
      24     2     1     2     0     0  2.194727902E+00  3.419686945E+01  6.318538406E+01  1.097202174E+02  8.289686753E+01  0.00000E+00  9.000E+00
     -11     1     3     3     0     0  1.781463699E+00 -1.899020258E+01 -8.147080167E+00  2.074069243E+01  5.109989100E-04  0.00000E+00  9.000E+00
      12     1     3     3     0     0  4.132642038E-01  5.318707203E+01  7.133246423E+01  8.897952501E+01  2.132480600E-06  0.00000E+00  9.000E+00
      -2     1     1     2     0   501 -1.535960327E+01 -4.541239312E+00  3.496982446E+01  3.846334476E+01  0.000000000E+00  0.00000E+00  9.000E+00
      21     1     1     2   502   512  1.316487537E+01 -2.965563014E+01 -3.970802273E+01  5.127862529E+01  4.768371582E-07  0.00000E+00  9.000E+00
</event>
<event>
      7    666  1.00000E+00  8.65294E+01 -1.00000E+00  1.26698E-01
      -1    -1     0     0     0   502  0.000000000E+00  0.000000000E+00  7.533846183E+01  7.533846183E+01  0.000000000E+00  0.00000E+00  9.000E+00
      21    -1     0     0   502   501  0.000000000E+00  0.000000000E+00 -8.862633860E+01  8.862633860E+01  0.000000000E+00  0.00000E+00  9.000E+00
      24     2     1     2     0     0  4.658040418E+01 -4.643970235E+00 -4.329070361E-01  9.456651892E+01  8.216652955E+01  0.00000E+00  9.000E+00
     -11     1     3     3     0     0  6.061757729E+01  1.688666697E+00  2.438401219E+01  6.535994433E+01  5.109989100E-04  0.00000E+00  9.000E+00
      12     1     3     3     0     0 -1.403717311E+01 -6.332636931E+00 -2.481691923E+01  2.920657459E+01  3.371747881E-07  0.00000E+00  9.000E+00
      -2     1     1     2     0   511  4.714965394E-01 -1.639217717E+01 -5.712553649E+00  1.736545567E+01  0.000000000E+00  0.00000E+00  9.000E+00
      21     1     1     2   511   501 -4.705190072E+01  2.103614740E+01 -7.142416084E+00  5.203282585E+01  2.822265768E-06  0.00000E+00  9.000E+00
</event>
<event>
      7    666  1.00000E+00  2.25159E+02 -1.00000E+00  1.09788E-01
      21    -1     0     0   502   501  0.000000000E+00  0.000000000E+00  6.974688139E+01  6.974688139E+01  0.000000000E+00  0.00000E+00  9.000E+00
       2    -1     0     0   501     0  0.000000000E+00  0.000000000E+00 -4.075499039E+02  4.075499039E+02  0.000000000E+00  0.00000E+00  9.000E+00
      24     2     1     2     0     0  6.181640940E+00 -2.020435581E+01 -3.820138051E+02  3.909638600E+02  8.044727392E+01  0.00000E+00  9.000E+00
     -11     1     3     3     0     0  2.282540080E+01  2.404184833E+01 -1.105117331E+02  1.153770018E+02  5.109989100E-04  0.00000E+00  9.000E+00
      12     1     3     3     0     0 -1.664375986E+01 -4.424620413E+01 -2.715020720E+02  2.755868582E+02  0.000000000E+00  0.00000E+00  9.000E+00
       1     1     1     2   511     0  1.334322357E+01 -6.905287355E+00 -1.314078037E+01  1.996007809E+01  0.000000000E+00  0.00000E+00  9.000E+00
      21     1     1     2   502   511 -1.952486451E+01  2.710964316E+01  5.735156288E+01  6.637284725E+01  7.325311420E-06  0.00000E+00  9.000E+00
</event>
<event>
      7    666  1.00000E+00  1.03311E+01 -1.00000E+00  1.94078E-01
      21    -1     0     0   502   511  0.000000000E+00  0.000000000E+00  1.094254051E+01  1.094254051E+01  0.000000000E+00  0.00000E+00  9.000E+00
       2    -1     0     0   501     0  0.000000000E+00  0.000000000E+00 -2.832092957E+02  2.832092957E+02  0.000000000E+00  0.00000E+00  9.000E+00
      24     2     1     2     0     0  5.279734440E+00  1.623115196E+01 -2.493967325E+02  2.627772681E+02  8.100516371E+01  0.00000E+00  9.000E+00
     -11     1     3     3     0     0 -1.042648142E+00  2.281804662E+01 -1.315493979E+01  2.635911242E+01  5.109989100E-04  0.00000E+00  9.000E+00
      12     1     3     3     0     0  6.322382582E+00 -6.586894656E+00 -2.362417927E+02  2.364181557E+02  2.697398305E-06  0.00000E+00  9.000E+00
       1     1     1     2   502     0  1.408303714E-01 -7.436307931E+00 -1.889321131E+01  2.030448084E+01  0.000000000E+00  0.00000E+00  9.000E+00
      21     1     1     2   501   511 -5.420564812E+00 -8.794844028E+00 -3.976811439E+00  1.107008733E+01  2.064765462E-07  0.00000E+00  9.000E+00
</event>
<event>
      7    666  1.00000E+00  9.27694E+00 -1.00000E+00  1.99541E-01
       1    -1     0     0   501     0  0.000000000E+00  0.000000000E+00  2.654624048E+01  2.654624048E+01  0.000000000E+00  0.00000E+00  9.000E+00
      -2    -1     0     0     0   502  0.000000000E+00  0.000000000E+00 -7.265851652E+01  7.265851652E+01  0.000000000E+00  0.00000E+00  9.000E+00
     -24     2     1     2     0     0  1.891649883E+00 -6.657099045E+00 -4.345354679E+01  9.138013617E+01  8.008884599E+01  0.00000E+00  9.000E+00
      11     1     3     3     0     0  3.591542275E+01  1.568623526E+01 -2.636404990E+01  4.723387233E+01  5.109989100E-04  0.00000E+00  9.000E+00
     -12     1     3     3     0     0 -3.402377287E+01 -2.234333431E+01 -1.708949689E+01  4.414626385E+01  8.920806376E-07  0.00000E+00  9.000E+00
      21     1     1     2   501   511 -4.448619486E-01  6.984387195E-03 -5.338445997E-01  6.949395597E-01  2.107342426E-08  0.00000E+00  9.000E+00
      21     1     1     2   511   502 -1.446787935E+00  6.650114658E+00 -2.124884654E+00  7.129681275E+00  2.086162567E-07  0.00000E+00  9.000E+00
</event>
<event>
      7    666  1.00000E+00  5.52289E+00 -1.00000E+00  2.31127E-01
       2    -1     0     0   501     0  0.000000000E+00  0.000000000E+00  8.997064325E+02  8.997064325E+02  0.000000000E+00  0.00000E+00  9.000E+00
      -1    -1     0     0     0   502  0.000000000E+00  0.000000000E+00 -3.553968638E+00  3.553968638E+00  0.000000000E+00  0.00000E+00  9.000E+00
      24     2     1     2     0     0 -3.516228664E+00 -1.316666268E+01  8.718961056E+02  8.754293702E+02  7.738241723E+01  0.00000E+00  9.000E+00
     -11     1     3     3     0     0  1.353285244E+01 -2.815397600E+01  1.520582109E+02  1.552336431E+02  5.109989100E-04  0.00000E+00  9.000E+00
      12     1     3     3     0     0 -1.704908111E+01  1.498731332E+01  7.198378947E+02  7.201957272E+02  1.078959322E-05  0.00000E+00  9.000E+00
      21     1     1     2   501   511  7.815269577E-02  1.240304530E-01  1.642486709E-01  2.201568146E-01  2.385349660E-08  0.00000E+00  9.000E+00
      21     1     1     2   511   502  3.438075968E+00  1.304263223E+01  2.409210964E+01  2.761087410E+01  1.545128989E-06  0.00000E+00  9.000E+00
</event>
<event>
      7    666  1.00000E+00  9.74630E+00 -1.00000E+00  1.96997E-01
      -1    -1     0     0     0   502  0.000000000E+00  0.000000000E+00  1.554164799E+01  1.554164799E+01  0.000000000E+00  0.00000E+00  9.000E+00
       2    -1     0     0   501     0  0.000000000E+00  0.000000000E+00 -1.433280404E+02  1.433280404E+02  0.000000000E+00  0.00000E+00  9.000E+00
      24     2     1     2     0     0  1.798063872E+00  3.673191355E+00 -1.176135151E+02  1.427426901E+02  8.078249367E+01  0.00000E+00  9.000E+00
     -11     1     3     3     0     0 -1.165626028E+01  3.936386335E+01 -4.637447030E+01  6.193523745E+01  5.109989100E-04  0.00000E+00  9.000E+00
      12     1     3     3     0     0  1.345432415E+01 -3.569067200E+01 -7.123904476E+01  8.080745265E+01  9.536743164E-07  0.00000E+00  9.000E+00
      21     1     1     2   511   502 -6.431276391E+00 -8.857308568E-01 -3.019108137E+00  7.159668227E+00  3.526258339E-07  0.00000E+00  9.000E+00
      21     1     1     2   501   511  4.633212520E+00 -2.787460498E+00 -7.153769176E+00  8.967330021E+00  2.230201594E-07  0.00000E+00  9.000E+00
</event>
<event>
      7    666  1.00000E+00  3.54958E+00 -1.00000E+00  2.76206E-01
      -1    -1     0     0     0   502  0.000000000E+00  0.000000000E+00  2.623019626E+01  2.623019626E+01  0.000000000E+00  0.00000E+00  9.000E+00
       2    -1     0     0   501     0  0.000000000E+00  0.000000000E+00 -1.817622308E+02  1.817622308E+02  0.000000000E+00  0.00000E+00  9.000E+00
      24     2     1     2     0     0  4.171358859E+00 -6.963167681E+00 -1.681146452E+02  1.860139698E+02  7.920086550E+01  0.00000E+00  9.000E+00
     -11     1     3     3     0     0 -6.131630822E+00  2.144579935E+01 -8.995684954E+00  2.405081193E+01  5.109989100E-04  0.00000E+00  9.000E+00
      12     1     3     3     0     0  1.030298968E+01 -2.840896703E+01 -1.591189602E+02  1.619631579E+02  2.697398305E-06  0.00000E+00  9.000E+00
      21     1     1     2   511   502 -4.942993838E+00  9.008671573E+00  1.533748444E+01  1.846152162E+01  1.498437535E-06  0.00000E+00  9.000E+00
      21     1     1     2   501   511  7.716349792E-01 -2.045503891E+00 -2.754873843E+00  3.516935684E+00  7.300048300E-08  0.00000E+00  9.000E+00
</event>
<event>
      7    666  1.00000E+00  3.21001E+00 -1.00000E+00  2.88096E-01
      21    -1     0     0   502   501  0.000000000E+00  0.000000000E+00  1.076868188E+02  1.076868188E+02  0.000000000E+00  0.00000E+00  9.000E+00
       1    -1     0     0   501     0  0.000000000E+00  0.000000000E+00 -5.776754939E+01  5.776754939E+01  0.000000000E+00  0.00000E+00  9.000E+00
     -24     2     1     2     0     0  1.615569798E+01 -8.182730988E+00 -2.608284344E+01  8.715745206E+01  8.116737685E+01  0.00000E+00  9.000E+00
      11     1     3     3     0     0  1.648235369E+01 -3.656316724E+01 -3.902855621E+01  5.596214240E+01  5.109989100E-04  0.00000E+00  9.000E+00
     -12     1     3     3     0     0 -3.266557080E-01  2.838043626E+01  1.294571277E+01  3.119530967E+01  4.129530925E-07  0.00000E+00  9.000E+00
       2     1     1     2   512     0 -1.109338560E+01  3.693234606E+00  5.510273913E+01  5.632952197E+01  0.000000000E+00  0.00000E+00  9.000E+00
      21     1     1     2   502   512 -5.062312378E+00  4.489496382E+00  2.089937375E+01  2.196739419E+01  1.369610464E-06  0.00000E+00  9.000E+00
</event>
<event>
      7    666  1.00000E+00  4.15693E+00 -1.00000E+00  2.59488E-01
      -2    -1     0     0     0   512  0.000000000E+00  0.000000000E+00  1.853565495E+02  1.853565495E+02  0.000000000E+00  0.00000E+00  9.000E+00
      21    -1     0     0   502   501  0.000000000E+00  0.000000000E+00 -2.930775828E+01  2.930775828E+01  0.000000000E+00  0.00000E+00  9.000E+00
     -24     2     1     2     0     0  8.984863847E+00 -5.909773925E+00  1.009310176E+02  1.291594087E+02  7.987132991E+01  0.00000E+00  9.000E+00
      11     1     3     3     0     0  2.559717495E+01 -3.072812272E+01  2.401598485E+01  4.664976334E+01  5.109989100E-04  0.00000E+00  9.000E+00
     -12     1     3     3     0     0 -1.661231110E+01  2.481834880E+01  7.691503276E+01  8.250964538E+01  1.651812370E-06  0.00000E+00  9.000E+00
      -1     1     1     2     0   501 -5.481381477E+00  3.672433323E+00 -1.441225256E+01  1.585072028E+01  0.000000000E+00  0.00000E+00  9.000E+00
      21     1     1     2   502   512 -3.503482370E+00  2.237340601E+00  6.953002617E+01  6.965417877E+01  9.536743164E-07  0.00000E+00  9.000E+00
</event>
<event>
      7    666  1.00000E+00  2.15195E+01 -1.00000E+00  1.63747E-01
      -2    -1     0     0     0   502  0.000000000E+00  0.000000000E+00  7.673341350E+00  7.673341350E+00  0.000000000E+00  0.00000E+00  9.000E+00
       1    -1     0     0   501     0  0.000000000E+00  0.000000000E+00 -9.538269752E+02  9.538269752E+02  0.000000000E+00  0.00000E+00  9.000E+00
     -24     2     1     2     0     0  4.924477027E+00  1.531987485E+01 -2.266806647E+02  2.408833138E+02  7.988553100E+01  0.00000E+00  9.000E+00
      11     1     3     3     0     0 -6.927913767E+00  4.706378313E+01 -1.288996692E+02  1.373976725E+02  5.109989100E-04  0.00000E+00  9.000E+00
     -12     1     3     3     0     0  1.185239079E+01 -3.174390828E+01 -9.778099551E+01  1.034856413E+02  1.348699152E-06  0.00000E+00  9.000E+00
      21     1     1     2   511   502  1.242318436E+00  5.492098929E-01 -5.931896472E+02  5.931912023E+02  7.629394531E-06  0.00000E+00  9.000E+00
      21     1     1     2   501   511 -6.166795463E+00 -1.586908474E+01 -1.262833219E+02  1.274258004E+02  2.336015456E-06  0.00000E+00  9.000E+00
</event>
<event>
      7    666  1.00000E+00  7.47030E+01 -1.00000E+00  1.29781E-01
       2    -1     0     0   501     0  0.000000000E+00  0.000000000E+00  1.743858355E+02  1.743858355E+02  0.000000000E+00  0.00000E+00  9.000E+00
      -1    -1     0     0     0   502  0.000000000E+00  0.000000000E+00 -5.036192921E+01  5.036192921E+01  0.000000000E+00  0.00000E+00  9.000E+00
      24     2     1     2     0     0 -1.917988099E+01  8.036390187E+00 -1.017791059E+01  8.453099486E+01  8.129851061E+01  0.00000E+00  9.000E+00
     -11     1     3     3     0     0  2.070392642E+01  1.743878001E+01 -2.879668762E+01  3.952230808E+01  5.109989100E-04  0.00000E+00  9.000E+00
      12     1     3     3     0     0 -3.988380742E+01 -9.402389819E+00  1.861877703E+01  4.500868679E+01  7.907449699E-07  0.00000E+00  9.000E+00
       1     1     1     2   501     0 -7.627021993E+00 -8.155807428E+00  1.995266845E+01  2.286476848E+01  0.000000000E+00  0.00000E+00  9.000E+00
      -1     1     1     2     0   502  2.680690298E+01  1.194172409E-01  1.142491484E+02  1.173520013E+02  0.000000000E+00  0.00000E+00  9.000E+00
</event>
<event>
      7    666  1.00000E+00  3.31700E+01 -1.00000E+00  1.50037E-01
      -1    -1     0     0     0   502  0.000000000E+00  0.000000000E+00  5.288682933E+01  5.288682933E+01  0.000000000E+00  0.00000E+00  9.000E+00
      21    -1     0     0   502   501  0.000000000E+00  0.000000000E+00 -4.889868497E+01  4.889868497E+01  0.000000000E+00  0.00000E+00  9.000E+00
      24     2     1     2     0     0  1.417248911E+01 -4.467527682E+00  1.263819005E+01  8.315038371E+01  8.082972357E+01  0.00000E+00  9.000E+00
     -11     1     3     3     0     0 -9.108801572E+00  1.325979977E+01  3.998441543E+01  4.309925792E+01  5.109989100E-04  0.00000E+00  9.000E+00
      12     1     3     3     0     0  2.328129069E+01 -1.772732746E+01 -2.734622538E+01  4.005112579E+01  1.215700987E-06  0.00000E+00  9.000E+00
      -2     1     1     2     0   512  6.732757884E-02 -2.327620464E-01  8.498416111E-01  8.837091926E-01  0.000000000E+00  0.00000E+00  9.000E+00
      21     1     1     2   512   501 -1.423981669E+01  4.700289729E+00 -9.499887302E+00  1.775142140E+01  7.817075878E-07  0.00000E+00  9.000E+00
</event>
<event>
      7    666  1.00000E+00  8.44151E+00 -1.00000E+00  2.04602E-01
       1    -1     0     0   501     0  0.000000000E+00  0.000000000E+00  3.873116865E+02  3.873116865E+02  0.000000000E+00  0.00000E+00  9.000E+00
      21    -1     0     0   502   501  0.000000000E+00  0.000000000E+00 -1.032158719E+01  1.032158719E+01  0.000000000E+00  0.00000E+00  9.000E+00
     -24     2     1     2     0     0 -3.044190969E+01 -1.749863907E+01  3.000269438E+02  3.125775420E+02  8.034700055E+01  0.00000E+00  9.000E+00
      11     1     3     3     0     0 -1.677331108E+01 -1.789106492E+00  2.880736486E+02  2.885671012E+02  5.109989100E-04  0.00000E+00  9.000E+00
     -12     1     3     3     0     0 -1.366859861E+01 -1.570953258E+01  1.195329527E+01  2.401044085E+01  7.907449699E-07  0.00000E+00  9.000E+00
       4     1     1     2   512     0  1.847815791E+01  6.109173239E+00  4.635716183E+01  5.027674184E+01  0.000000000E+00  0.00000E+00  9.000E+00
      21     1     1     2   502   512  1.196375178E+01  1.138946583E+01  3.060599361E+01  3.477898983E+01  1.168007728E-06  0.00000E+00  9.000E+00
</event>
<event>
      7    666  1.00000E+00  6.10716E+00 -1.00000E+00  2.24207E-01
      -1    -1     0     0     0   502  0.000000000E+00  0.000000000E+00  5.493388601E+01  5.493388601E+01  0.000000000E+00  0.00000E+00  9.000E+00
      21    -1     0     0   511   501  0.000000000E+00  0.000000000E+00 -6.272020325E+01  6.272020325E+01  0.000000000E+00  0.00000E+00  9.000E+00
      24     2     1     2     0     0  7.789150738E+00 -5.009316195E+00 -2.220962774E+01  8.495751348E+01  8.147850891E+01  0.00000E+00  9.000E+00
     -11     1     3     3     0     0 -2.246061564E+01  2.254681719E+01  9.474493924E+00  3.320548532E+01  5.109989100E-04  0.00000E+00  9.000E+00
      12     1     3     3     0     0  3.024976638E+01 -2.755613339E+01 -3.168412167E+01  5.175202816E+01  1.507891493E-06  0.00000E+00  9.000E+00
      -2     1     1     2     0   501 -1.108140173E+01  1.015309583E+01  1.959414152E+01  2.469439615E+01  0.000000000E+00  0.00000E+00  9.000E+00
      21     1     1     2   511   502  3.292250992E+00 -5.143779630E+00 -5.170831021E+00  8.002179636E+00  1.332800375E-07  0.00000E+00  9.000E+00
</event>
<event>
      7    666  1.00000E+00  4.34548E+00 -1.00000E+00  2.55170E-01
       1    -1     0     0   501     0  0.000000000E+00  0.000000000E+00  6.314513459E+01  6.314513459E+01  0.000000000E+00  0.00000E+00  9.000E+00
       4    -1     0     0   502     0  0.000000000E+00  0.000000000E+00 -1.185429350E+02  1.185429350E+02  0.000000000E+00  0.00000E+00  9.000E+00
     -24     2     1     2     0     0 -7.409389991E+00 -1.365410729E+01  2.759680572E+01  8.457066216E+01  7.841734187E+01  0.00000E+00  9.000E+00
      11     1     3     3     0     0 -2.734787109E+01  2.087492543E+01  2.851886597E+01  4.468774196E+01  5.109989100E-04  0.00000E+00  9.000E+00
     -12     1     3     3     0     0  1.993848110E+01 -3.452903271E+01 -9.220602522E-01  3.988292020E+01  5.411809622E-07  0.00000E+00  9.000E+00
       2     1     1     2   502     0  7.085938221E+00  9.320684020E+00  2.114223467E+00  1.189771457E+01  0.000000000E+00  0.00000E+00  9.000E+00
       4     1     1     2   501     0  3.234517694E-01  4.333423267E+00 -8.510882959E+01  8.521969287E+01  0.000000000E+00  0.00000E+00  9.000E+00
</event>
<event>
      7    666  1.00000E+00  5.82482E+01 -1.00000E+00  1.35367E-01
       2    -1     0     0   501     0  0.000000000E+00  0.000000000E+00  7.995876902E+02  7.995876902E+02  0.000000000E+00  0.00000E+00  9.000E+00
      21    -1     0     0   502   501  0.000000000E+00  0.000000000E+00 -7.657541092E+00  7.657541092E+00  0.000000000E+00  0.00000E+00  9.000E+00
      24     2     1     2     0     0 -6.733827780E+00 -2.751985736E+00  7.014740072E+02  7.056109559E+02  7.594814283E+01  0.00000E+00  9.000E+00
     -11     1     3     3     0     0 -2.085775699E+01 -1.493632162E+01  8.342236433E+01  8.727789297E+01  5.109989100E-04  0.00000E+00  9.000E+00
      12     1     3     3     0     0  1.412392921E+01  1.218433589E+01  6.180516429E+02  6.183330630E+02  1.078959322E-05  0.00000E+00  9.000E+00
       1     1     1     2   511     0  3.957795532E+00 -2.074985377E+01  5.583972540E+01  5.970172117E+01  0.000000000E+00  0.00000E+00  9.000E+00
      21     1     1     2   502   511  2.776032248E+00  2.350183950E+01  3.461641648E+01  4.193255424E+01  2.023048729E-06  0.00000E+00  9.000E+00
</event>
<event>
      7    666  1.00000E+00  4.03781E+00 -1.00000E+00  2.62404E-01
      21    -1     0     0   502   501  0.000000000E+00  0.000000000E+00  2.428166431E+01  2.428166431E+01  0.000000000E+00  0.00000E+00  9.000E+00
      -3    -1     0     0     0   502  0.000000000E+00  0.000000000E+00 -1.648607341E+02  1.648607341E+02  0.000000000E+00  0.00000E+00  9.000E+00
      24     2     1     2     0     0 -1.082153952E+00 -6.480155602E+00 -1.540538280E+02  1.739129051E+02  8.043601925E+01  0.00000E+00  9.000E+00
     -11     1     3     3     0     0  2.083065301E+01 -2.822106444E+01 -1.303688344E+02  1.350051020E+02  5.109989100E-04  0.00000E+00  9.000E+00
      12     1     3     3     0     0 -2.191280696E+01  2.174090884E+01 -2.368499358E+01  3.890780316E+01  1.066240300E-06  0.00000E+00  9.000E+00
      -4     1     1     2     0   511 -5.374082867E-01  1.116208443E+00  4.338721012E+00  4.512120231E+00  0.000000000E+00  0.00000E+00  9.000E+00
      21     1     1     2   511   501  1.619562238E+00  5.363947159E+00  9.136037134E+00  1.071737307E+01  1.976862425E-06  0.00000E+00  9.000E+00
</event>
<event>
      7    666  1.00000E+00  1.76230E+00 -1.00000E+00  3.90571E-01
      -1    -1     0     0     0   502  0.000000000E+00  0.000000000E+00  1.647772638E+01  1.647772638E+01  0.000000000E+00  0.00000E+00  9.000E+00
      21    -1     0     0   502   501  0.000000000E+00  0.000000000E+00 -1.665862504E+02  1.665862504E+02  0.000000000E+00  0.00000E+00  9.000E+00
      24     2     1     2     0     0  6.240658409E+00  4.704900165E+00 -8.523856055E+01  1.174001086E+02  8.034980643E+01  0.00000E+00  9.000E+00
     -11     1     3     3     0     0  1.605511346E+01 -3.485929268E+01 -2.980892047E+01  4.859535672E+01  5.109989100E-04  0.00000E+00  9.000E+00
      12     1     3     3     0     0 -9.814455051E+00  3.956419285E+01 -5.542964009E+01  6.880475190E+01  6.743495762E-07  0.00000E+00  9.000E+00
      -2     1     1     2     0   511 -7.397488382E+00 -4.377459139E+00 -6.123224161E+01  6.183261595E+01  0.000000000E+00  0.00000E+00  9.000E+00
      21     1     1     2   511   501  1.156829973E+00 -3.274410260E-01 -3.637721904E+00  3.831252258E+00  7.300048300E-08  0.00000E+00  9.000E+00
</event>
<event>
      7    666  1.00000E+00  9.82771E+00 -1.00000E+00  1.96575E-01
      -1    -1     0     0     0   502  0.000000000E+00  0.000000000E+00  1.146585126E+01  1.146585126E+01  0.000000000E+00  0.00000E+00  9.000E+00
      21    -1     0     0   502   501  0.000000000E+00  0.000000000E+00 -3.508362658E+02  3.508362658E+02  0.000000000E+00  0.00000E+00  9.000E+00
      24     2     1     2     0     0 -3.487807711E+01  8.343823068E-01 -2.616688662E+02  2.755097332E+02  7.885328850E+01  0.00000E+00  9.000E+00
     -11     1     3     3     0     0 -2.345544516E+01 -2.018517088E+01 -3.170024615E+01  4.430016521E+01  5.109989100E-04  0.00000E+00  9.000E+00
      12     1     3     3     0     0 -1.142263194E+01  2.101955318E+01 -2.299686200E+02  2.312095680E+02  3.814697266E-06  0.00000E+00  9.000E+00
      -2     1     1     2     0   511  2.622674607E+01  3.820662457E+00 -4.117342665E+01  4.896622033E+01  0.000000000E+00  0.00000E+00  9.000E+00
      21     1     1     2   511   501  8.651331033E+00 -4.655044763E+00 -3.652812167E+01  3.782616347E+01  6.743495762E-07  0.00000E+00  9.000E+00
</event>
<event>
      7    666  1.00000E+00  4.87897E+01 -1.00000E+00  1.39656E-01
       4    -1     0     0   501     0  0.000000000E+00  0.000000000E+00  6.625988190E+01  6.625988190E+01  0.000000000E+00  0.00000E+00  9.000E+00
      21    -1     0     0   502   501  0.000000000E+00  0.000000000E+00 -1.733678323E+02  1.733678323E+02  0.000000000E+00  0.00000E+00  9.000E+00
      24     2     1     2     0     0 -2.779998984E+01 -1.072622567E-01  2.961756046E+01  9.150219863E+01  8.199147227E+01  0.00000E+00  9.000E+00
     -11     1     3     3     0     0  2.427390280E+01  1.220018558E+01  2.642394780E+01  3.789844196E+01  5.109989100E-04  0.00000E+00  9.000E+00
      12     1     3     3     0     0 -5.207389264E+01 -1.230744784E+01  3.193612662E+00  5.360375667E+01  0.000000000E+00  0.00000E+00  9.000E+00
       3     1     1     2   512     0  3.700646527E+01 -6.020424511E+00 -6.103238248E+01  7.162873512E+01  0.000000000E+00  0.00000E+00  9.000E+00
      21     1     1     2   502   512 -9.206475433E+00  6.127686768E+00 -7.569312839E+01  7.649678046E+01  3.162979880E-06  0.00000E+00  9.000E+00
</event>
<event>
      7    666  1.00000E+00  2.12657E+01 -1.00000E+00  1.64159E-01
      -2    -1     0     0     0   501  0.000000000E+00  0.000000000E+00  5.377646075E+00  5.377646075E+00  0.000000000E+00  0.00000E+00  9.000E+00
       1    -1     0     0   501     0  0.000000000E+00  0.000000000E+00 -9.500907408E+02  9.500907408E+02  0.000000000E+00  0.00000E+00  9.000E+00
     -24     2     1     2     0     0  8.706389368E+00  7.072539146E+00 -4.967335597E+02  5.019660755E+02  7.141351117E+01  0.00000E+00  9.000E+00
      11     1     3     3     0     0 -2.013411924E+01 -6.118751581E+00 -3.913146929E+02  3.918800975E+02  5.109989100E-04  0.00000E+00  9.000E+00
     -12     1     3     3     0     0  2.884050860E+01  1.319129073E+01 -1.054188668E+02  1.100859781E+02  3.015782986E-06  0.00000E+00  9.000E+00
       2     1     1     2   502     0 -1.689705677E+01  1.255247440E+01 -4.050283052E+02  4.055749044E+02  0.000000000E+00  0.00000E+00  9.000E+00
      -2     1     1     2     0   502  8.190667404E+00 -1.962501354E+01 -4.295122988E+01  4.792740695E+01  0.000000000E+00  0.00000E+00  9.000E+00
</event>
<event>
      7    666  1.00000E+00  5.84522E+01 -1.00000E+00  1.35286E-01
       1    -1     0     0   501     0  0.000000000E+00  0.000000000E+00  8.680671579E+01  8.680671579E+01  0.000000000E+00  0.00000E+00  9.000E+00
      21    -1     0     0   502   501  0.000000000E+00  0.000000000E+00 -1.321581591E+02  1.321581591E+02  0.000000000E+00  0.00000E+00  9.000E+00
     -24     2     1     2     0     0 -4.375015081E+01  5.037100067E+01  7.543392008E+00  1.054108271E+02  8.126023815E+01  0.00000E+00  9.000E+00
      11     1     3     3     0     0 -6.169282287E+01  1.211994235E+01  3.548236513E+00  6.297211588E+01  5.109989100E-04  0.00000E+00  9.000E+00
     -12     1     3     3     0     0  1.794267206E+01  3.825105832E+01  3.995155495E+00  4.243871123E+01  7.574716227E-07  0.00000E+00  9.000E+00
       2     1     1     2   511     0  1.020948442E+01 -4.182284690E+01 -6.406259503E+01  7.718419642E+01  0.000000000E+00  0.00000E+00  9.000E+00
      21     1     1     2   502   511  3.354066639E+01 -8.548153772E+00  1.116775968E+01  3.636985140E+01  2.283721454E-06  0.00000E+00  9.000E+00
</event>
<event>
      7    666  1.00000E+00  2.74914E+01 -1.00000E+00  1.55685E-01
       2    -1     0     0   501     0  0.000000000E+00  0.000000000E+00  1.703057185E+02  1.703057185E+02  0.000000000E+00  0.00000E+00  9.000E+00
      -3    -1     0     0     0   502  0.000000000E+00  0.000000000E+00 -2.166649853E+01  2.166649853E+01  0.000000000E+00  0.00000E+00  9.000E+00
      24     2     1     2     0     0 -3.041852779E+01  3.398530679E+00  1.141292909E+02  1.418853707E+02  7.854378725E+01  0.00000E+00  9.000E+00
     -11     1     3     3     0     0 -6.075640264E+00  3.693891662E+01  2.952984572E+01  4.768027636E+01  5.109989100E-04  0.00000E+00  9.000E+00
      12     1     3     3     0     0 -2.434288753E+01 -3.354038594E+01  8.459944523E+01  9.420509431E+01  9.536743164E-07  0.00000E+00  9.000E+00
       4     1     1     2   501     0  8.118974677E+00 -9.173404999E+00  1.788839943E+01  2.168095808E+01  0.000000000E+00  0.00000E+00  9.000E+00
      -4     1     1     2     0   502  2.229955311E+01  5.774874319E+00  1.662152961E+01  2.840588828E+01  0.000000000E+00  0.00000E+00  9.000E+00
</event>
<event>
      7    666  1.00000E+00  2.67677E+01 -1.00000E+00  1.56523E-01
      21    -1     0     0   502   501  0.000000000E+00  0.000000000E+00  5.846545789E+00  5.846545789E+00  0.000000000E+00  0.00000E+00  9.000E+00
       1    -1     0     0   501     0  0.000000000E+00  0.000000000E+00 -6.864475956E+02  6.864475956E+02  0.000000000E+00  0.00000E+00  9.000E+00
     -24     2     1     2     0     0 -1.740792217E+01 -1.005232275E+01 -5.701342438E+02  5.758274197E+02  7.823091731E+01  0.00000E+00  9.000E+00
      11     1     3     3     0     0 -2.835988095E+01  1.567923507E+00 -5.468888864E+02  5.476259630E+02  5.109989100E-04  0.00000E+00  9.000E+00
     -12     1     3     3     0     0  1.095195879E+01 -1.162024626E+01 -2.324535741E+01  2.820145679E+01  6.743495762E-07  0.00000E+00  9.000E+00
       2     1     1     2   512     0  1.880586214E+01 -6.617413462E+00 -5.346482990E+01  5.706083287E+01  0.000000000E+00  0.00000E+00  9.000E+00
      21     1     1     2   502   512 -1.397939970E+00  1.666973621E+01 -5.700197618E+01  5.940588884E+01  9.536743164E-07  0.00000E+00  9.000E+00
</event>
<event>
      7    666  1.00000E+00  1.16779E+01 -1.00000E+00  1.88225E-01
      -1    -1     0     0     0   502  0.000000000E+00  0.000000000E+00  1.341718291E+01  1.341718291E+01  0.000000000E+00  0.00000E+00  9.000E+00
       2    -1     0     0   501     0  0.000000000E+00  0.000000000E+00 -1.740162917E+02  1.740162917E+02  0.000000000E+00  0.00000E+00  9.000E+00
      24     2     1     2     0     0 -4.821255667E+00  1.135622943E+01 -1.352515690E+02  1.570636183E+02  7.889096795E+01  0.00000E+00  9.000E+00
     -11     1     3     3     0     0 -2.181465946E+01  3.473510046E+01 -3.912066951E+01  5.668186089E+01  5.109989100E-04  0.00000E+00  9.000E+00
      12     1     3     3     0     0  1.699340379E+01 -2.337887103E+01 -9.613089954E+01  1.003817575E+02  1.907348633E-06  0.00000E+00  9.000E+00
      21     1     1     2   501   511 -2.455470880E+00 -7.040597304E+00 -7.286727889E+00  1.042572544E+01  2.384185791E-07  0.00000E+00  9.000E+00
      21     1     1     2   511   502  7.276726546E+00 -4.315632127E+00 -1.806081185E+01  1.994413083E+01  2.384185791E-07  0.00000E+00  9.000E+00
</event>
<event>
      7    666  1.00000E+00  3.34412E+00 -1.00000E+00  2.83128E-01
      21    -1     0     0   502   512  0.000000000E+00  0.000000000E+00  5.446479462E+01  5.446479462E+01  0.000000000E+00  0.00000E+00  9.000E+00
       4    -1     0     0   501     0  0.000000000E+00  0.000000000E+00 -7.866324943E+01  7.866324943E+01  0.000000000E+00  0.00000E+00  9.000E+00
      24     2     1     2     0     0 -6.156014744E+00 -1.664193649E+01 -5.388873082E+01  9.757973294E+01  7.939117334E+01  0.00000E+00  9.000E+00
     -11     1     3     3     0     0 -6.510921359E+00 -7.823694127E+00  2.038427893E+01  2.278422951E+01  5.109989100E-04  0.00000E+00  9.000E+00
      12     1     3     3     0     0  3.549066145E-01 -8.818242368E+00 -7.427300975E+01  7.479550344E+01  1.907348633E-06  0.00000E+00  9.000E+00
       3     1     1     2   502     0  6.943140163E+00  1.339177542E+01  2.799175596E+01  3.179756667E+01  0.000000000E+00  0.00000E+00  9.000E+00
      21     1     1     2   501   512 -7.871254196E-01  3.250161078E+00  1.698520057E+00  3.750744438E+00  4.712160915E-08  0.00000E+00  9.000E+00
</event>
<event>
      7    666  1.00000E+00  8.20720E+00 -1.00000E+00  2.06164E-01
      -1    -1     0     0     0   502  0.000000000E+00  0.000000000E+00  2.715594936E+02  2.715594936E+02  0.000000000E+00  0.00000E+00  9.000E+00
       2    -1     0     0   501     0  0.000000000E+00  0.000000000E+00 -1.919711548E+01  1.919711548E+01  0.000000000E+00  0.00000E+00  9.000E+00
      24     2     1     2     0     0 -5.919960788E+00 -1.862785962E+01  7.153754647E+01  1.088028854E+02  7.961409563E+01  0.00000E+00  9.000E+00
     -11     1     3     3     0     0  1.228985451E+01 -1.276907034E+01  8.408067444E+01  8.592816474E+01  5.109989100E-04  0.00000E+00  9.000E+00
      12     1     3     3     0     0 -1.820981530E+01 -5.858789285E+00 -1.254312797E+01  2.287472064E+01  6.307962682E-07  0.00000E+00  9.000E+00
      21     1     1     2   501   512  7.323091162E-01  7.408321374E+00  5.078311272E+01  5.132586131E+01  1.168007728E-06  0.00000E+00  9.000E+00
      21     1     1     2   512   502  5.187651672E+00  1.121953825E+01  1.300417189E+02  1.306278624E+02  1.907348633E-06  0.00000E+00  9.000E+00
</event>
<event>
      7    666  1.00000E+00  5.39334E+00 -1.00000E+00  2.32826E-01
      -2    -1     0     0     0   502  0.000000000E+00  0.000000000E+00  6.394967272E+00  6.394967272E+00  0.000000000E+00  0.00000E+00  9.000E+00
       1    -1     0     0   501     0  0.000000000E+00  0.000000000E+00 -3.481150475E+02  3.481150475E+02  0.000000000E+00  0.00000E+00  9.000E+00
     -24     2     1     2     0     0  2.366724805E+00  4.717294933E+00 -3.403382554E+02  3.488908045E+02  7.659511160E+01  0.00000E+00  9.000E+00
      11     1     3     3     0     0 -2.841759371E+01  9.170777032E-02 -2.755534424E+02  2.770149231E+02  5.109989100E-04  0.00000E+00  9.000E+00
     -12     1     3     3     0     0  3.078431851E+01  4.625587163E+00 -6.478481309E+01  7.187588142E+01  1.348699152E-06  0.00000E+00  9.000E+00
      21     1     1     2   501   511 -1.918125225E-01 -5.517097641E-01 -6.319947659E-01  8.605771852E-01  2.107342426E-08  0.00000E+00  9.000E+00
      21     1     1     2   511   502 -2.174912283E+00 -4.165585169E+00 -7.498300068E-01  4.758633026E+00  1.273155770E-07  0.00000E+00  9.000E+00
</event>
<event>
      7    666  1.00000E+00  2.28075E+01 -1.00000E+00  1.61756E-01
      -1    -1     0     0     0   502  0.000000000E+00  0.000000000E+00  3.787882210E+02  3.787882210E+02  0.000000000E+00  0.00000E+00  9.000E+00
       2    -1     0     0   512     0  0.000000000E+00  0.000000000E+00 -1.154966126E+01  1.154966126E+01  0.000000000E+00  0.00000E+00  9.000E+00
      24     2     1     2     0     0  9.310850480E+00  3.215590954E+01  2.187121614E+02  2.357096997E+02  8.126105174E+01  0.00000E+00  9.000E+00
     -11     1     3     3     0     0  1.210743326E+01 -1.744553629E+01  1.466657718E+02  1.481950921E+02  5.109989100E-04  0.00000E+00  9.000E+00
      12     1     3     3     0     0 -2.796582776E+00  4.960144583E+01  7.204638958E+01  8.751460767E+01  2.697398305E-06  0.00000E+00  9.000E+00
      21     1     1     2   501   502 -4.356226263E+00 -9.893106579E+00  1.043804732E+02  1.049387128E+02  0.000000000E+00  0.00000E+00  9.000E+00
      21     1     1     2   512   501 -4.954624217E+00 -2.226280296E+01  4.414592510E+01  4.968946970E+01  1.168007728E-06  0.00000E+00  9.000E+00
</event>
<event>
      7    666  1.00000E+00  1.72072E+01 -1.00000E+00  1.71901E-01
      21    -1     0     0   511   502  0.000000000E+00  0.000000000E+00  5.497983822E+01  5.497983822E+01  0.000000000E+00  0.00000E+00  9.000E+00
       1    -1     0     0   501     0  0.000000000E+00  0.000000000E+00 -2.073772631E+02  2.073772631E+02  0.000000000E+00  0.00000E+00  9.000E+00
     -24     2     1     2     0     0 -1.092384027E+01 -1.599514916E+01 -1.883841140E+02  2.059957836E+02  8.105870323E+01  0.00000E+00  9.000E+00
      11     1     3     3     0     0  3.217629640E+01 -1.823626499E+01 -5.930324073E+01  6.989098491E+01  5.109989100E-04  0.00000E+00  9.000E+00
     -12     1     3     3     0     0 -4.310013667E+01  2.241115828E+00 -1.290808733E+02  1.361047987E+02  1.907348633E-06  0.00000E+00  9.000E+00
      21     1     1     2   501   502  2.360595965E+01  4.365314042E+00  2.935312972E+01  3.791969834E+01  7.539457465E-07  0.00000E+00  9.000E+00
       2     1     1     2   511     0 -1.268211939E+01  1.162983511E+01  6.633559362E+00  1.844161942E+01  0.000000000E+00  0.00000E+00  9.000E+00
</event>
<event>
      7    666  1.00000E+00  3.51359E+01 -1.00000E+00  1.48388E-01
       1    -1     0     0   501     0  0.000000000E+00  0.000000000E+00  7.414010844E+01  7.414010844E+01  0.000000000E+00  0.00000E+00  9.000E+00
      21    -1     0     0   502   501  0.000000000E+00  0.000000000E+00 -4.545914187E+01  4.545914187E+01  0.000000000E+00  0.00000E+00  9.000E+00
     -24     2     1     2     0     0  1.280623503E+01  7.132232668E+00  1.397048266E+01  8.322920821E+01  8.072829935E+01  0.00000E+00  9.000E+00
      11     1     3     3     0     0  1.272003652E+01 -6.496492031E+00  4.613551796E+01  4.829585650E+01  5.109989100E-04  0.00000E+00  9.000E+00
     -12     1     3     3     0     0  8.619851463E-02  1.362872470E+01 -3.216503529E+01  3.493335172E+01  8.259061849E-07  0.00000E+00  9.000E+00
       2     1     1     2   511     0  1.191417888E+00 -1.255063749E+01 -3.194930954E+00  1.300559733E+01  0.000000000E+00  0.00000E+00  9.000E+00
      21     1     1     2   502   511 -1.399765292E+01  5.418404822E+00  1.790541485E+01  2.336444477E+01  7.152557373E-07  0.00000E+00  9.000E+00
</event>
<event>
      7    666  1.00000E+00  3.21838E+00 -1.00000E+00  2.87774E-01
      21    -1     0     0   512   501  0.000000000E+00  0.000000000E+00  3.925170601E+01  3.925170601E+01  0.000000000E+00  0.00000E+00  9.000E+00
       2    -1     0     0   501     0  0.000000000E+00  0.000000000E+00 -1.791817551E+02  1.791817551E+02  0.000000000E+00  0.00000E+00  9.000E+00
      24     2     1     2     0     0  2.325377962E+00 -3.790915455E+00 -1.653948874E+02  1.838463795E+02  8.015138218E+01  0.00000E+00  9.000E+00
     -11     1     3     3     0     0  2.080688558E+01  2.030691317E+01 -1.993949320E+01  3.525451176E+01  5.109989100E-04  0.00000E+00  9.000E+00
      12     1     3     3     0     0 -1.848150762E+01 -2.409782862E+01 -1.454553942E+02  1.485918678E+02  3.303624740E-06  0.00000E+00  9.000E+00
       1     1     1     2   502     0 -4.974865726E+00  1.963837669E+00 -2.870149837E+00  6.069901768E+00  0.000000000E+00  0.00000E+00  9.000E+00
      21     1     1     2   512   502  2.649487764E+00  1.827077786E+00  2.833498808E+01  2.851717988E+01  0.000000000E+00  0.00000E+00  9.000E+00
</event>
<event>
      7    666  1.00000E+00  2.12018E+01 -1.00000E+00  1.64264E-01
       3    -1     0     0   502     0  0.000000000E+00  0.000000000E+00  2.024107321E+01  2.024107321E+01  0.000000000E+00  0.00000E+00  9.000E+00
       1    -1     0     0   501     0  0.000000000E+00  0.000000000E+00 -3.516637791E+02  3.516637791E+02  0.000000000E+00  0.00000E+00  9.000E+00
     -24     2     1     2     0     0  1.930325064E+01  1.964052157E+00 -3.247431852E+02  3.352084914E+02  8.080917862E+01  0.00000E+00  9.000E+00
      11     1     3     3     0     0  3.313628293E+01 -7.258276807E+00 -3.130506223E+02  3.148831338E+02  5.109989100E-04  0.00000E+00  9.000E+00
     -12     1     3     3     0     0 -1.383303228E+01  9.222328964E+00 -1.169256299E+01  2.032535764E+01  6.078504936E-07  0.00000E+00  9.000E+00
       2     1     1     2   502     0 -3.311110029E+00  1.195605295E+01 -9.058861560E+00  1.536143302E+01  0.000000000E+00  0.00000E+00  9.000E+00
       3     1     1     2   501     0 -1.599214061E+01 -1.392010511E+01  2.379340875E+00  2.133492795E+01  0.000000000E+00  0.00000E+00  9.000E+00
</event>
<event>
      7    666  1.00000E+00  1.12228E+01 -1.00000E+00  1.90083E-01
      -3    -1     0     0     0   502  0.000000000E+00  0.000000000E+00  3.652177716E+01  3.652177716E+01  0.000000000E+00  0.00000E+00  9.000E+00
       4    -1     0     0   511     0  0.000000000E+00  0.000000000E+00 -9.189121792E+01  9.189121792E+01  0.000000000E+00  0.00000E+00  9.000E+00
      24     2     1     2     0     0 -8.261581475E-01  2.349438825E+01 -4.468499763E+01  9.332715963E+01  7.848911323E+01  0.00000E+00  9.000E+00
     -11     1     3     3     0     0 -1.058188516E+00  3.323499598E+01  1.234602127E+01  3.546983172E+01  5.109989100E-04  0.00000E+00  9.000E+00
      12     1     3     3     0     0  2.320303683E-01 -9.740607731E+00 -5.703101890E+01  5.785732792E+01  1.507891493E-06  0.00000E+00  9.000E+00
      21     1     1     2   501   502  2.316121275E+00 -1.237091745E+01  6.803102666E+00  1.430685927E+01  6.307962682E-07  0.00000E+00  9.000E+00
      21     1     1     2   511   501 -1.489963127E+00 -1.112347080E+01 -1.748754580E+01  2.077897618E+01  0.000000000E+00  0.00000E+00  9.000E+00
</event>
<event>
      7    666  1.00000E+00  9.58802E+00 -1.00000E+00  1.97834E-01
      -1    -1     0     0     0   502  0.000000000E+00  0.000000000E+00  1.052585537E+01  1.052585537E+01  0.000000000E+00  0.00000E+00  9.000E+00
       2    -1     0     0   501     0  0.000000000E+00  0.000000000E+00 -3.274968241E+02  3.274968241E+02  0.000000000E+00  0.00000E+00  9.000E+00
      24     2     1     2     0     0 -1.843745881E+01  1.730853393E+01 -2.836070153E+02  2.958906739E+02  8.049115812E+01  0.00000E+00  9.000E+00
     -11     1     3     3     0     0  3.579054882E+00  4.127050077E+01 -8.411907868E+01  9.376610937E+01  5.109989100E-04  0.00000E+00  9.000E+00
      12     1     3     3     0     0 -2.201651369E+01 -2.396196683E+01 -1.994879366E+02  2.021245645E+02  0.000000000E+00  0.00000E+00  9.000E+00
       1     1     1     2   501     0  4.964775687E+00 -2.300857042E+00 -8.619438023E+00  1.020968425E+01  0.000000000E+00  0.00000E+00  9.000E+00
      -1     1     1     2     0   502  1.347268313E+01 -1.500767689E+01 -2.474451542E+01  3.192232134E+01  0.000000000E+00  0.00000E+00  9.000E+00
</event>
<event>
      7    666  1.00000E+00  1.57878E+01 -1.00000E+00  1.75268E-01
      -1    -1     0     0     0   502  0.000000000E+00  0.000000000E+00  1.713118327E+02  1.713118327E+02  0.000000000E+00  0.00000E+00  9.000E+00
       2    -1     0     0   501     0  0.000000000E+00  0.000000000E+00 -5.219979433E+01  5.219979433E+01  0.000000000E+00  0.00000E+00  9.000E+00
      24     2     1     2     0     0  1.273169027E+01  4.678769338E+00  1.530471572E+02  1.729649074E+02  7.943198371E+01  0.00000E+00  9.000E+00
     -11     1     3     3     0     0  6.328166351E+00 -2.964975280E+00  1.604146806E+02  1.605668288E+02  5.109989100E-04  0.00000E+00  9.000E+00
      12     1     3     3     0     0  6.403523919E+00  7.643744618E+00 -7.367523406E+00  1.239807854E+01  1.460009660E-07  0.00000E+00  9.000E+00
      21     1     1     2   511   502 -5.817018673E+00 -1.466897464E+01 -3.495732735E+01  3.835402533E+01  1.261592536E-06  0.00000E+00  9.000E+00
      21     1     1     2   501   511 -6.914671596E+00  9.990205304E+00  1.022208556E+00  1.219269435E+01  2.169641819E-07  0.00000E+00  9.000E+00
</event>
<event>
      7    666  1.00000E+00  2.04353E+01 -1.00000E+00  1.65560E-01
      -2    -1     0     0     0   511  0.000000000E+00  0.000000000E+00  9.093697151E+00  9.093697151E+00  0.000000000E+00  0.00000E+00  9.000E+00
       1    -1     0     0   501     0  0.000000000E+00  0.000000000E+00 -8.585557202E+02  8.585557202E+02  0.000000000E+00  0.00000E+00  9.000E+00
     -24     2     1     2     0     0 -2.208866507E+01  2.840846583E+00 -3.303179943E+02  3.408313389E+02  8.099410273E+01  0.00000E+00  9.000E+00
      11     1     3     3     0     0 -4.743020126E+01  1.005714316E+01 -2.786069627E+02  2.827942889E+02  5.109989100E-04  0.00000E+00  9.000E+00
     -12     1     3     3     0     0  2.534153618E+01 -7.216296580E+00 -5.171103159E+01  5.803705007E+01  2.780414531E-06  0.00000E+00  9.000E+00
      21     1     1     2   501   502  1.895249658E+00 -5.975523936E+00 -4.956113420E+02  4.956509872E+02  1.078959322E-05  0.00000E+00  9.000E+00
      21     1     1     2   502   511  2.019341542E+01  3.134677353E+00 -2.353268676E+01  3.116709121E+01  4.768371582E-07  0.00000E+00  9.000E+00
</event>
<event>
      7    666  1.00000E+00  9.04930E+00 -1.00000E+00  2.00848E-01
       2    -1     0     0   501     0  0.000000000E+00  0.000000000E+00  4.171186439E+02  4.171186439E+02  0.000000000E+00  0.00000E+00  9.000E+00
      -3    -1     0     0     0   502  0.000000000E+00  0.000000000E+00 -1.163661856E+01  1.163661856E+01  0.000000000E+00  0.00000E+00  9.000E+00
      24     2     1     2     0     0  1.463883776E+01  1.076405577E+01  1.337359432E+02  1.562769855E+02  7.878472713E+01  0.00000E+00  9.000E+00
     -11     1     3     3     0     0 -3.337694343E+00  3.811732908E+01  3.358126154E+01  5.090945007E+01  5.109989100E-04  0.00000E+00  9.000E+00
      12     1     3     3     0     0  1.797653211E+01 -2.735327331E+01  1.001546816E+02  1.053675354E+02  1.348699152E-06  0.00000E+00  9.000E+00
      21     1     1     2   511   502 -4.310701844E+00 -1.855815428E+00  1.281485287E+02  1.282344400E+02  0.000000000E+00  0.00000E+00  9.000E+00
      21     1     1     2   501   511 -1.032813592E+01 -8.908240341E+00  1.435975535E+02  1.442438370E+02  0.000000000E+00  0.00000E+00  9.000E+00
</event>
<event>
      7    666  1.00000E+00  1.05202E+01 -1.00000E+00  1.93188E-01
      -2    -1     0     0     0   502  0.000000000E+00  0.000000000E+00  8.374691570E+01  8.374691570E+01  0.000000000E+00  0.00000E+00  9.000E+00
      -2    -1     0     0     0   501  0.000000000E+00  0.000000000E+00 -8.742633688E+01  8.742633688E+01  0.000000000E+00  0.00000E+00  9.000E+00
     -24     2     1     2     0     0 -2.275127447E+00  5.055102653E+00  6.216601727E+01  1.028537231E+02  8.175294731E+01  0.00000E+00  9.000E+00
      11     1     3     3     0     0  1.900418025E+01 -3.018919020E+01  1.131146852E+01  3.742319324E+01  5.109989100E-04  0.00000E+00  9.000E+00
     -12     1     3     3     0     0 -2.127930770E+01  3.524429285E+01  5.085454876E+01  6.543052991E+01  9.536743164E-07  0.00000E+00  9.000E+00
      -3     1     1     2     0   501  5.882426540E+00  4.827283356E+00 -2.435305369E+01  2.551424760E+01  0.000000000E+00  0.00000E+00  9.000E+00
      -2     1     1     2     0   502 -3.607299092E+00 -9.882386009E+00 -4.149238476E+01  4.280528183E+01  0.000000000E+00  0.00000E+00  9.000E+00
</event>
<event>
      7    666  1.00000E+00  1.52117E+01 -1.00000E+00  1.76765E-01
      21    -1     0     0   511   502  0.000000000E+00  0.000000000E+00  3.835489631E+00  3.835489631E+00  0.000000000E+00  0.00000E+00  9.000E+00
       2    -1     0     0   501     0  0.000000000E+00  0.000000000E+00 -2.907772934E+03  2.907772934E+03  0.000000000E+00  0.00000E+00  9.000E+00
      24     2     1     2     0     0 -1.573350714E+01 -1.864958717E+00 -2.846594323E+03  2.847785356E+03  8.081567071E+01  0.00000E+00  9.000E+00
     -11     1     3     3     0     0  2.868282692E+01  5.411561286E+00 -5.706326833E+02  5.713787263E+02  5.109989100E-04  0.00000E+00  9.000E+00
      12     1     3     3     0     0 -4.441633406E+01 -7.276520004E+00 -2.275961640E+03  2.276406630E+03  3.051757813E-05  0.00000E+00  9.000E+00
      21     1     1     2   501   502  5.639043323E-01  2.996171103E+00  1.244401454E+00  3.292956780E+00  2.547314172E-06  0.00000E+00  9.000E+00
       1     1     1     2   511     0  1.516960281E+01 -1.131212386E+00 -5.858752242E+01  6.053011048E+01  0.000000000E+00  0.00000E+00  9.000E+00
</event>
<event>
      7    666  1.00000E+00  1.47174E+01 -1.00000E+00  1.78117E-01
       1    -1     0     0   502     0  0.000000000E+00  0.000000000E+00  8.824883614E+02  8.824883614E+02  0.000000000E+00  0.00000E+00  9.000E+00
       2    -1     0     0   501     0  0.000000000E+00  0.000000000E+00 -1.329590591E+02  1.329590591E+02  0.000000000E+00  0.00000E+00  9.000E+00
      24     2     1     2     0     0  3.241751379E+00  4.924165809E+00 -1.174782665E+02  1.469420282E+02  8.806849716E+01  0.00000E+00  9.000E+00
     -11     1     3     3     0     0  2.580728593E+01  3.294543078E+01 -9.676648303E+01  1.054285049E+02  5.109989100E-04  0.00000E+00  9.000E+00
      12     1     3     3     0     0 -2.256553455E+01 -2.802126497E+01 -2.071178351E+01  4.151352329E+01  1.143415337E-06  0.00000E+00  9.000E+00
       1     1     1     2   502     0  5.694607563E+00 -1.661795989E+01  1.132632663E+02  1.146174186E+02  0.000000000E+00  0.00000E+00  9.000E+00
       1     1     1     2   501     0 -8.936358942E+00  1.169379408E+01  7.537443025E+02  7.538879737E+02  0.000000000E+00  0.00000E+00  9.000E+00
</event>
<event>
      7    666  1.00000E+00  9.56557E+00 -1.00000E+00  1.97954E-01
      -1    -1     0     0     0   502  0.000000000E+00  0.000000000E+00  7.820828047E+02  7.820828047E+02  0.000000000E+00  0.00000E+00  9.000E+00
      21    -1     0     0   502   501  0.000000000E+00  0.000000000E+00 -4.351635609E+00  4.351635609E+00  0.000000000E+00  0.00000E+00  9.000E+00
      24     2     1     2     0     0 -1.537118156E+01  2.032909111E+01  5.891821629E+02  5.953645181E+02  8.169298086E+01  0.00000E+00  9.000E+00
     -11     1     3     3     0     0 -4.869223718E+01  6.217297174E+00  3.141236958E+02  3.179359763E+02  5.109989100E-04  0.00000E+00  9.000E+00
      12     1     3     3     0     0  3.332105562E+01  1.411179394E+01  2.750584672E+02  2.774285419E+02  3.814697266E-06  0.00000E+00  9.000E+00
      -2     1     1     2     0   511  1.565872659E+01 -1.602770239E+01  1.028499992E+02  1.052625541E+02  0.000000000E+00  0.00000E+00  9.000E+00
      21     1     1     2   511   501 -2.875450338E-01 -4.301388717E+00  8.569900694E+01  8.580736809E+01  9.536743164E-07  0.00000E+00  9.000E+00
</event>
<event>
      7    666  1.00000E+00  1.15104E+01 -1.00000E+00  1.88896E-01
      21    -1     0     0   511   502  0.000000000E+00  0.000000000E+00  5.274630697E+00  5.274630697E+00  0.000000000E+00  0.00000E+00  9.000E+00
       2    -1     0     0   501     0  0.000000000E+00  0.000000000E+00 -9.892173971E+02  9.892173971E+02  0.000000000E+00  0.00000E+00  9.000E+00
      24     2     1     2     0     0  2.755351804E+01  2.028374633E+01 -7.121590673E+02  7.174025391E+02  7.953137325E+01  0.00000E+00  9.000E+00
     -11     1     3     3     0     0  3.315932688E+01 -1.269215259E+01 -1.459616994E+02  1.502180062E+02  5.109989100E-04  0.00000E+00  9.000E+00
      12     1     3     3     0     0 -5.605808838E+00  3.297589892E+01 -5.661973679E+02  5.671845330E+02  7.629394531E-06  0.00000E+00  9.000E+00
      21     1     1     2   501   502 -2.035763942E+01 -2.926760765E+01 -2.492437166E+02  2.517805723E+02  0.000000000E+00  0.00000E+00  9.000E+00
       1     1     1     2   511     0 -7.195878624E+00  8.983861320E+00 -2.253998251E+01  2.530891631E+01  0.000000000E+00  0.00000E+00  9.000E+00
</event>
<event>
      7    666  1.00000E+00  3.99928E+00 -1.00000E+00  2.63380E-01
      21    -1     0     0   511   501  0.000000000E+00  0.000000000E+00  5.327832547E+01  5.327832547E+01  0.000000000E+00  0.00000E+00  9.000E+00
       1    -1     0     0   501     0  0.000000000E+00  0.000000000E+00 -7.088235892E+02  7.088235892E+02  0.000000000E+00  0.00000E+00  9.000E+00
     -24     2     1     2     0     0  4.165459326E+00  2.541548576E+01 -5.806751141E+02  5.867176470E+02  7.994192347E+01  0.00000E+00  9.000E+00
      11     1     3     3     0     0  3.952955117E+01  1.860526260E+00 -2.180864962E+02  2.216478441E+02  5.109989100E-04  0.00000E+00  9.000E+00
     -12     1     3     3     0     0 -3.536409184E+01  2.355495951E+01 -3.625886179E+02  3.650698029E+02  5.394796609E-06  0.00000E+00  9.000E+00
       2     1     1     2   502     0 -3.216092818E+00 -2.153051964E+01 -1.240986542E+02  1.259935812E+02  0.000000000E+00  0.00000E+00  9.000E+00
      21     1     1     2   511   502 -9.493665072E-01 -3.884966123E+00  4.922850454E+01  4.939068655E+01  1.784161275E-06  0.00000E+00  9.000E+00
</event>
<event>
      7    666  1.00000E+00  1.82687E+01 -1.00000E+00  1.69637E-01
      21    -1     0     0   502   501  0.000000000E+00  0.000000000E+00  2.912672047E+02  2.912672047E+02  0.000000000E+00  0.00000E+00  9.000E+00
      21    -1     0     0   511   502  0.000000000E+00  0.000000000E+00 -4.019771503E+01  4.019771503E+01  0.000000000E+00  0.00000E+00  9.000E+00
      24     2     1     2     0     0 -5.333402036E+01  2.310257402E+00  2.075346785E+02  2.290280852E+02  8.082923997E+01  0.00000E+00  9.000E+00
     -11     1     3     3     0     0  1.908554282E+01 -1.267798242E+01  4.920834298E+01  5.428121408E+01  5.109989100E-04  0.00000E+00  9.000E+00
      12     1     3     3     0     0 -7.241956317E+01  1.498823982E+01  1.583263355E+02  1.747468712E+02  1.907348633E-06  0.00000E+00  9.000E+00
      -2     1     1     2     0   501  7.092780682E+01 -7.229857853E+00  2.291289840E+01  7.488675142E+01  0.000000000E+00  0.00000E+00  9.000E+00
       1     1     1     2   511     0 -1.759378647E+01  4.919600450E+00  2.062191282E+01  2.755008311E+01  0.000000000E+00  0.00000E+00  9.000E+00
</event>
<event>
      7    666  1.00000E+00  1.68139E+00 -1.00000E+00  4.02068E-01
      21    -1     0     0   511   502  0.000000000E+00  0.000000000E+00  1.647563069E+02  1.647563069E+02  0.000000000E+00  0.00000E+00  9.000E+00
      21    -1     0     0   502   501  0.000000000E+00  0.000000000E+00 -4.677471368E+01  4.677471368E+01  0.000000000E+00  0.00000E+00  9.000E+00
     -24     2     1     2     0     0  5.963657990E+00  1.063738560E-01  1.419274631E+02  1.644541222E+02  8.286239805E+01  0.00000E+00  9.000E+00
      11     1     3     3     0     0  2.812042130E+01  2.928774691E+01  4.387285086E+01  5.977756482E+01  5.109989100E-04  0.00000E+00  9.000E+00
     -12     1     3     3     0     0 -2.215676331E+01 -2.918137305E+01  9.805461222E+01  1.046765574E+02  0.000000000E+00  0.00000E+00  9.000E+00
      -1     1     1     2     0   501 -6.938320332E+00 -1.476452786E+00 -3.509345536E+01  3.580322347E+01  0.000000000E+00  0.00000E+00  9.000E+00
       2     1     1     2   511     0  9.746623420E-01  1.370078930E+00  1.114758555E+01  1.127367494E+01  0.000000000E+00  0.00000E+00  9.000E+00
</event>
<event>
      7    666  1.00000E+00  2.94430E+01 -1.00000E+00  1.53572E-01
       2    -1     0     0   501     0  0.000000000E+00  0.000000000E+00  1.232055189E+03  1.232055189E+03  0.000000000E+00  0.00000E+00  9.000E+00
      -2    -1     0     0     0   501  0.000000000E+00  0.000000000E+00 -1.679042391E+01  1.679042391E+01  0.000000000E+00  0.00000E+00  9.000E+00
      24     2     1     2     0     0 -7.541162365E-02 -3.198561593E+01  1.126782736E+03  1.130082265E+03  8.014678128E+01  0.00000E+00  9.000E+00
     -11     1     3     3     0     0  1.350913555E+01 -1.498735518E+01  6.462378718E+01  6.770045368E+01  5.109989100E-04  0.00000E+00  9.000E+00
      12     1     3     3     0     0 -1.358454718E+01 -1.699826075E+01  1.062158948E+03  1.062381811E+03  2.157918644E-05  0.00000E+00  9.000E+00
       1     1     1     2   502     0 -2.124344335E+01  1.167803133E+01  8.584536153E+01  8.920250220E+01  0.000000000E+00  0.00000E+00  9.000E+00
      -2     1     1     2     0   502  2.131885497E+01  2.030758459E+01  2.636667463E+00  2.956084547E+01  0.000000000E+00  0.00000E+00  9.000E+00
</event>
<event>
      7    666  1.00000E+00  3.76466E+00 -1.00000E+00  2.69720E-01
      -1    -1     0     0     0   502  0.000000000E+00  0.000000000E+00  5.165896372E+00  5.165896372E+00  0.000000000E+00  0.00000E+00  9.000E+00
       2    -1     0     0   501     0  0.000000000E+00  0.000000000E+00 -6.945623016E+02  6.945623016E+02  0.000000000E+00  0.00000E+00  9.000E+00
      24     2     1     2     0     0 -5.432373398E+00 -5.139490833E-01 -6.676947853E+02  6.725350556E+02  8.035732625E+01  0.00000E+00  9.000E+00
     -11     1     3     3     0     0  2.496143840E+00  2.720700011E+01 -8.845866373E+01  9.258178426E+01  5.109989100E-04  0.00000E+00  9.000E+00
      12     1     3     3     0     0 -7.928517238E+00 -2.772094919E+01 -5.792361216E+02  5.799532714E+02  1.321449896E-05  0.00000E+00  9.000E+00
      21     1     1     2   511   502  5.379101399E+00  9.758720657E-01  1.960518670E-02  5.466940873E+00  1.806556805E-06  0.00000E+00  9.000E+00
      21     1     1     2   501   511  5.327199937E-02 -4.619229824E-01 -2.172122504E+01  2.172620141E+01  2.384185791E-07  0.00000E+00  9.000E+00
</event>
<event>
      7    666  1.00000E+00  2.27795E+02 -1.00000E+00  1.09611E-01
       1    -1     0     0   501     0  0.000000000E+00  0.000000000E+00  2.145208899E+02  2.145208899E+02  0.000000000E+00  0.00000E+00  9.000E+00
      21    -1     0     0   502   501  0.000000000E+00  0.000000000E+00 -1.121298071E+02  1.121298071E+02  0.000000000E+00  0.00000E+00  9.000E+00
     -24     2     1     2     0     0 -4.508227156E+00  1.304735153E+01  2.037878197E+02  2.197222532E+02  8.098046422E+01  0.00000E+00  9.000E+00
      11     1     3     3     0     0 -2.093272800E+01 -4.044855261E-01  1.959904495E+02  1.971055529E+02  5.109989100E-04  0.00000E+00  9.000E+00
     -12     1     3     3     0     0  1.642450084E+01  1.345183706E+01  7.797370251E+00  2.261670026E+01  3.153981341E-07  0.00000E+00  9.000E+00
       2     1     1     2   512     0  2.548401400E+00  2.660237031E-01  1.623330161E+00  3.033202782E+00  0.000000000E+00  0.00000E+00  9.000E+00
      21     1     1     2   502   512  1.959825757E+00 -1.331337523E+01 -1.030200671E+02  1.038952410E+02  1.427329020E-05  0.00000E+00  9.000E+00
</event>
<event>
      7    666  1.00000E+00  4.45006E+00 -1.00000E+00  2.52917E-01
       2    -1     0     0   501     0  0.000000000E+00  0.000000000E+00  2.383300753E+02  2.383300753E+02  0.000000000E+00  0.00000E+00  9.000E+00
      21    -1     0     0   502   501  0.000000000E+00  0.000000000E+00 -2.135050195E+01  2.135050195E+01  0.000000000E+00  0.00000E+00  9.000E+00
      24     2     1     2     0     0 -1.131324907E+01  1.045250618E+01  2.258730795E+02  2.397491189E+02  7.889073098E+01  0.00000E+00  9.000E+00
     -11     1     3     3     0     0  1.909337299E+01 -3.113577111E-02  1.011553457E+01  2.160745014E+01  5.109989100E-04  0.00000E+00  9.000E+00
      12     1     3     3     0     0 -3.040662207E+01  1.048364195E+01  2.157575450E+02  2.181416687E+02  2.697398305E-06  0.00000E+00  9.000E+00
       1     1     1     2   512     0  1.243160297E+01 -7.128973502E+00 -7.144907778E+00  1.601301729E+01  0.000000000E+00  0.00000E+00  9.000E+00
      21     1     1     2   502   512 -1.118353891E+00 -3.323532675E+00 -1.748598378E+00  3.918441164E+00  4.693274423E-07  0.00000E+00  9.000E+00
</event>
<event>
      7    666  1.00000E+00  1.20829E+01 -1.00000E+00  1.86661E-01
       2    -1     0     0   501     0  0.000000000E+00  0.000000000E+00  1.208751805E+02  1.208751805E+02  0.000000000E+00  0.00000E+00  9.000E+00
      -1    -1     0     0     0   502  0.000000000E+00  0.000000000E+00 -2.983186925E+01  2.983186925E+01  0.000000000E+00  0.00000E+00  9.000E+00
      24     2     1     2     0     0  3.296417681E+00  2.985902336E+01  7.734996200E+01  1.145446050E+02  7.896215723E+01  0.00000E+00  9.000E+00
     -11     1     3     3     0     0  2.702783804E+01  3.868891395E+01  1.888661209E+01  5.083345560E+01  5.109989100E-04  0.00000E+00  9.000E+00
      12     1     3     3     0     0 -2.373142036E+01 -8.829890584E+00  5.846334991E+01  6.371114944E+01  9.536743164E-07  0.00000E+00  9.000E+00
      21     1     1     2   512   502 -9.037761320E+00 -1.731777671E+01  6.374685692E+00  2.054806895E+01  1.445335824E-06  0.00000E+00  9.000E+00
      21     1     1     2   501   512  5.741343638E+00 -1.254124665E+01  7.318663535E+00  1.561437575E+01  9.424321831E-07  0.00000E+00  9.000E+00
</event>
<event>
      7    666  1.00000E+00  2.77593E+00 -1.00000E+00  3.07337E-01
      21    -1     0     0   512   502  0.000000000E+00  0.000000000E+00  7.504647910E+00  7.504647910E+00  0.000000000E+00  0.00000E+00  9.000E+00
       2    -1     0     0   501     0  0.000000000E+00  0.000000000E+00 -3.310815040E+02  3.310815040E+02  0.000000000E+00  0.00000E+00  9.000E+00
      24     2     1     2     0     0 -3.321410793E+00  4.074769306E+00 -1.986834128E+02  2.117202645E+02  7.295708574E+01  0.00000E+00  9.000E+00
     -11     1     3     3     0     0 -3.096028255E+01 -1.320356516E+01 -5.579290406E+01  6.515920021E+01  5.109989100E-04  0.00000E+00  9.000E+00
      12     1     3     3     0     0  2.763887176E+01  1.727833447E+01 -1.428905088E+02  1.465610643E+02  2.697398305E-06  0.00000E+00  9.000E+00
      21     1     1     2   501   502  1.200781079E+00 -5.866064073E+00 -1.236990837E+02  1.238439175E+02  1.907348633E-06  0.00000E+00  9.000E+00
       3     1     1     2   512     0  2.120629715E+00  1.791294767E+00 -1.194359505E+00  3.021969880E+00  0.000000000E+00  0.00000E+00  9.000E+00
</event>
<event>
      7    666  1.00000E+00  7.70489E+00 -1.00000E+00  2.09760E-01
      21    -1     0     0   502   501  0.000000000E+00  0.000000000E+00  6.035641878E+00  6.035641878E+00  0.000000000E+00  0.00000E+00  9.000E+00
       2    -1     0     0   512     0  0.000000000E+00  0.000000000E+00 -7.544226850E+02  7.544226850E+02  0.000000000E+00  0.00000E+00  9.000E+00
      24     2     1     2     0     0 -8.321244663E+00 -3.386680230E+01 -3.872646383E+02  3.963821142E+02  7.699790209E+01  0.00000E+00  9.000E+00
     -11     1     3     3     0     0 -1.617467099E+01 -2.216478175E+01 -3.791063328E+02  3.800980257E+02  5.109989100E-04  0.00000E+00  9.000E+00
      12     1     3     3     0     0  7.853426329E+00 -1.170202054E+01 -8.158305520E+00  1.628408852E+01  1.192092896E-07  0.00000E+00  9.000E+00
       1     1     1     2   502     0  1.573847931E+01  3.178114621E+01 -2.290545326E+02  2.317837783E+02  0.000000000E+00  0.00000E+00  9.000E+00
      21     1     1     2   512   501 -7.417234642E+00  2.085656085E+00 -1.320678722E+02  1.322924344E+02  0.000000000E+00  0.00000E+00  9.000E+00
</event>
<event>
      7    666  1.00000E+00  3.70748E+01 -1.00000E+00  1.46883E-01
       2    -1     0     0   501     0  0.000000000E+00  0.000000000E+00  8.135277696E+02  8.135277696E+02  0.000000000E+00  0.00000E+00  9.000E+00
      -1    -1     0     0     0   502  0.000000000E+00  0.000000000E+00 -5.581414466E+00  5.581414466E+00  0.000000000E+00  0.00000E+00  9.000E+00
      24     2     1     2     0     0  2.839078571E+01 -4.324026757E-01  7.312619027E+02  7.362665190E+02  8.085909351E+01  0.00000E+00  9.000E+00
     -11     1     3     3     0     0  1.830670951E+01  4.334294740E+00  3.354308898E+01  3.845855617E+01  5.109989100E-04  0.00000E+00  9.000E+00
      12     1     3     3     0     0  1.008407620E+01 -4.766697416E+00  6.977188137E+02  6.978079629E+02  0.000000000E+00  0.00000E+00  9.000E+00
       5     1     1     2   501     0 -4.639779253E+00 -1.791888248E+00  3.007330328E+01  3.048183041E+01  0.000000000E+00  0.00000E+00  9.000E+00
      -5     1     1     2     0   502 -2.375100646E+01  2.224290924E+00  4.661114912E+01  5.236083460E+01  0.000000000E+00  0.00000E+00  9.000E+00
</event>
<event>
      7    666  1.00000E+00  1.62395E+01 -1.00000E+00  1.74150E-01
       2    -1     0     0   501     0  0.000000000E+00  0.000000000E+00  2.964098019E+02  2.964098019E+02  0.000000000E+00  0.00000E+00  9.000E+00
      21    -1     0     0   502   512  0.000000000E+00  0.000000000E+00 -7.692039679E+01  7.692039679E+01  0.000000000E+00  0.00000E+00  9.000E+00
      24     2     1     2     0     0 -6.032246271E+01 -4.286330303E+00  2.184372822E+02  2.411689634E+02  8.240418979E+01  0.00000E+00  9.000E+00
     -11     1     3     3     0     0  9.534572868E+00  3.023966990E+00  1.190383080E+02  1.194578220E+02  5.109989100E-04  0.00000E+00  9.000E+00
      12     1     3     3     0     0 -6.985703558E+01 -7.310297293E+00  9.939897423E+01  1.217111414E+02  3.015782986E-06  0.00000E+00  9.000E+00
       1     1     1     2   502     0  5.101167037E+01 -9.018910241E+00  5.515854001E+01  7.567030984E+01  0.000000000E+00  0.00000E+00  9.000E+00
      21     1     1     2   501   512  9.310792341E+00  1.330524054E+01 -5.410641715E+01  5.649092544E+01  1.168007728E-06  0.00000E+00  9.000E+00
</event>
<event>
      7    666  1.00000E+00  4.45656E+00 -1.00000E+00  2.52780E-01
      21    -1     0     0   502   511  0.000000000E+00  0.000000000E+00  1.655697462E+01  1.655697462E+01  0.000000000E+00  0.00000E+00  9.000E+00
       2    -1     0     0   501     0  0.000000000E+00  0.000000000E+00 -4.109596640E+02  4.109596640E+02  0.000000000E+00  0.00000E+00  9.000E+00
      24     2     1     2     0     0 -4.316073584E+00  4.130153540E+00 -4.010144650E+02  4.084605982E+02  7.740654025E+01  0.00000E+00  9.000E+00
     -11     1     3     3     0     0  1.615727639E+01 -3.109959080E+01 -1.420099527E+02  1.462705329E+02  5.109989100E-04  0.00000E+00  9.000E+00
      12     1     3     3     0     0 -2.047334997E+01  3.522974434E+01 -2.590045123E+02  2.621900653E+02  0.000000000E+00  0.00000E+00  9.000E+00
       1     1     1     2   502     0  6.085449183E+00 -3.989303378E-02  1.114552295E+01  1.269869934E+01  0.000000000E+00  0.00000E+00  9.000E+00
      21     1     1     2   501   511 -1.769375599E+00 -4.090260507E+00 -4.533747345E+00  6.357341112E+00  1.685873940E-07  0.00000E+00  9.000E+00
</event>
<event>
      7    666  1.00000E+00  3.07288E+00 -1.00000E+00  2.93604E-01
       1    -1     0     0   501     0  0.000000000E+00  0.000000000E+00  3.957106136E+01  3.957106136E+01  0.000000000E+00  0.00000E+00  9.000E+00
       2    -1     0     0   502     0  0.000000000E+00  0.000000000E+00 -6.954336850E+02  6.954336850E+02  0.000000000E+00  0.00000E+00  9.000E+00
     -24     2     1     2     0     0  9.378998534E-01 -4.235795174E+00 -2.041716414E+00  8.055752281E+01  8.041470175E+01  0.00000E+00  9.000E+00
      11     1     3     3     0     0 -2.161044460E+01 -1.529187295E+01  2.989352026E+01  3.993088088E+01  5.109989100E-04  0.00000E+00  9.000E+00
     -12     1     3     3     0     0  2.254834445E+01  1.105607777E+01 -3.193523667E+01  4.062664193E+01  7.539457465E-07  0.00000E+00  9.000E+00
       2     1     1     2   502     0 -3.601295271E+00  5.768415400E+00 -3.706486956E+01  3.768353087E+01  0.000000000E+00  0.00000E+00  9.000E+00
       2     1     1     2   501     0  2.663395417E+00 -1.532620226E+00 -6.167560376E+02  6.167636926E+02  0.000000000E+00  0.00000E+00  9.000E+00
</event>
<event>
      7    666  1.00000E+00  8.35443E+01 -1.00000E+00  1.27421E-01
       2    -1     0     0   501     0  0.000000000E+00  0.000000000E+00  6.983707792E+02  6.983707792E+02  0.000000000E+00  0.00000E+00  9.000E+00
      21    -1     0     0   502   501  0.000000000E+00  0.000000000E+00 -7.413574084E+00  7.413574084E+00  0.000000000E+00  0.00000E+00  9.000E+00
      24     2     1     2     0     0 -3.630051198E+00  8.872955011E+00  2.784038509E+02  2.899781280E+02  8.054007664E+01  0.00000E+00  9.000E+00
     -11     1     3     3     0     0  2.887245154E+01 -6.881101617E+00  4.573288228E+01  5.452031309E+01  5.109989100E-04  0.00000E+00  9.000E+00
      12     1     3     3     0     0 -3.250250274E+01  1.575405663E+01  2.326709686E+02  2.354578149E+02  2.697398305E-06  0.00000E+00  9.000E+00
       1     1     1     2   511     0 -9.791142485E+00  1.672908296E-01  1.493749158E+01  1.786121810E+01  0.000000000E+00  0.00000E+00  9.000E+00
      21     1     1     2   502   511  1.342119368E+01 -9.040245841E+00  3.976158626E+02  3.979450071E+02  0.000000000E+00  0.00000E+00  9.000E+00
</event>
<event>
      7    666  1.00000E+00  8.29664E+00 -1.00000E+00  2.05560E-01
      -1    -1     0     0     0   502  0.000000000E+00  0.000000000E+00  1.111005884E+02  1.111005884E+02  0.000000000E+00  0.00000E+00  9.000E+00
       2    -1     0     0   511     0  0.000000000E+00  0.000000000E+00 -6.585856677E+01  6.585856677E+01  0.000000000E+00  0.00000E+00  9.000E+00
      24     2     1     2     0     0  1.509229501E+01 -1.554328617E+01  8.750087566E+01  1.180444242E+02  7.621490490E+01  0.00000E+00  9.000E+00
     -11     1     3     3     0     0  2.137592518E+01 -1.981691382E+00  9.764728851E+01  9.997924901E+01  5.109989100E-04  0.00000E+00  9.000E+00
      12     1     3     3     0     0 -6.283630164E+00 -1.356159479E+01 -1.014641285E+01  1.806517520E+01  5.840038640E-07  0.00000E+00  9.000E+00
      21     1     1     2   501   502 -7.514570679E+00  1.216506933E+01  1.499053012E+00  1.437723354E+01  8.360600554E-07  0.00000E+00  9.000E+00
      21     1     1     2   511   501 -7.577724333E+00  3.378216845E+00 -4.375790701E+01  4.453749747E+01  8.259061849E-07  0.00000E+00  9.000E+00
</event>
<event>
      7    666  1.00000E+00  3.92076E+00 -1.00000E+00  2.65424E-01
       4    -1     0     0   511     0  0.000000000E+00  0.000000000E+00  1.961092741E+01  1.961092741E+01  0.000000000E+00  0.00000E+00  9.000E+00
      -3    -1     0     0     0   502  0.000000000E+00  0.000000000E+00 -1.106036505E+02  1.106036505E+02  0.000000000E+00  0.00000E+00  9.000E+00
      24     2     1     2     0     0 -3.279542641E+00 -3.606631198E+00 -8.522498473E+01  1.180131197E+02  8.148641121E+01  0.00000E+00  9.000E+00
     -11     1     3     3     0     0  1.134118393E+01 -2.240544575E+01 -9.024569171E+01  9.367449666E+01  5.109989100E-04  0.00000E+00  9.000E+00
      12     1     3     3     0     0 -1.462072657E+01  1.879881455E+01  5.020706972E+00  2.433862306E+01  6.951036328E-07  0.00000E+00  9.000E+00
      21     1     1     2   501   502 -3.066554458E-01  5.191423452E+00 -6.382345633E+00  8.232815485E+00  0.000000000E+00  0.00000E+00  9.000E+00
      21     1     1     2   511   501  3.586198087E+00 -1.584792254E+00  6.146072385E-01  3.968642749E+00  7.107400905E-08  0.00000E+00  9.000E+00
</event>
<event>
      7    666  1.00000E+00  1.08141E+01 -1.00000E+00  1.91852E-01
       3    -1     0     0   501     0  0.000000000E+00  0.000000000E+00  3.030871269E+01  3.030871269E+01  0.000000000E+00  0.00000E+00  9.000E+00
      -4    -1     0     0     0   502  0.000000000E+00  0.000000000E+00 -6.799326813E+01  6.799326813E+01  0.000000000E+00  0.00000E+00  9.000E+00
     -24     2     1     2     0     0 -7.674574500E+00 -2.015569503E+00 -3.974082384E+01  8.335241966E+01  7.283770432E+01  0.00000E+00  9.000E+00
      11     1     3     3     0     0 -2.572122795E+01  6.570053001E+00  1.106237357E+01  2.875975092E+01  5.109989100E-04  0.00000E+00  9.000E+00
     -12     1     3     3     0     0  1.804665345E+01 -8.585622504E+00 -5.080319740E+01  5.459266875E+01  9.536743164E-07  0.00000E+00  9.000E+00
      21     1     1     2   512   502  1.355859135E+00 -1.451976008E+00  6.286026958E+00  6.592474743E+00  8.215933294E-07  0.00000E+00  9.000E+00
      21     1     1     2   501   512  6.318715365E+00  3.467545511E+00 -4.229758567E+00  8.357086410E+00  5.161913656E-07  0.00000E+00  9.000E+00
</event>
<event>
      7    666  1.00000E+00  1.38859E+01 -1.00000E+00  1.80551E-01
      -3    -1     0     0     0   502  0.000000000E+00  0.000000000E+00  8.325406268E+01  8.325406268E+01  0.000000000E+00  0.00000E+00  9.000E+00
       4    -1     0     0   511     0  0.000000000E+00  0.000000000E+00 -3.485126226E+01  3.485126226E+01  0.000000000E+00  0.00000E+00  9.000E+00
      24     2     1     2     0     0  1.407094921E+00  1.813152615E+01  5.281113360E+01  9.739570328E+01  7.978831386E+01  0.00000E+00  9.000E+00
     -11     1     3     3     0     0  1.165393223E+01  2.546653033E+01  7.039558027E+01  7.576210151E+01  5.109989100E-04  0.00000E+00  9.000E+00
      12     1     3     3     0     0 -1.024683731E+01 -7.335004170E+00 -1.758444667E+01  2.163360178E+01  4.768371582E-07  0.00000E+00  9.000E+00
      21     1     1     2   501   502 -6.108211883E-01 -4.268487668E+00 -5.255348302E+00  6.797924336E+00  2.457562462E-07  0.00000E+00  9.000E+00
      21     1     1     2   511   501 -7.962737323E-01 -1.386303849E+01  8.470151244E-01  1.391169733E+01  2.765761494E-07  0.00000E+00  9.000E+00
</event>
<event>
      7    666  1.00000E+00  1.99553E+01 -1.00000E+00  1.66408E-01
      -2    -1     0     0     0   502  0.000000000E+00  0.000000000E+00  6.961016890E+00  6.961016890E+00  0.000000000E+00  0.00000E+00  9.000E+00
       1    -1     0     0   501     0  0.000000000E+00  0.000000000E+00 -4.689176039E+02  4.689176039E+02  0.000000000E+00  0.00000E+00  9.000E+00
     -24     2     1     2     0     0 -2.203826110E+01  5.642563928E+00 -4.157441835E+02  4.243569672E+02  8.196393109E+01  0.00000E+00  9.000E+00
      11     1     3     3     0     0  1.107990806E+01 -2.579250309E+01 -2.741241524E+02  2.755577407E+02  5.109989100E-04  0.00000E+00  9.000E+00
     -12     1     3     3     0     0 -3.311816916E+01  3.143506701E+01 -1.416200311E+02  1.487992264E+02  2.697398305E-06  0.00000E+00  9.000E+00
       4     1     1     2   501     0  2.552581844E-02  9.220548682E-03 -4.857314602E-03  2.757135162E-02  0.000000000E+00  0.00000E+00  9.000E+00
      -4     1     1     2     0   502  2.201273528E+01 -5.651784477E+00 -4.620754620E+01  5.149408226E+01  0.000000000E+00  0.00000E+00  9.000E+00
</event>
<event>
      7    666  1.00000E+00  2.56063E+00 -1.00000E+00  3.19265E-01
       2    -1     0     0   512     0  0.000000000E+00  0.000000000E+00  2.819399946E+02  2.819399946E+02  0.000000000E+00  0.00000E+00  9.000E+00
      -1    -1     0     0     0   502  0.000000000E+00  0.000000000E+00 -8.443703361E+00  8.443703361E+00  0.000000000E+00  0.00000E+00  9.000E+00
      24     2     1     2     0     0  1.266435466E+01  2.438035673E+00  2.455758253E+02  2.579586725E+02  7.790289347E+01  0.00000E+00  9.000E+00
     -11     1     3     3     0     0  1.327372808E+01  8.229378589E-01  9.568333473E-01  1.333358969E+01  5.109989100E-04  0.00000E+00  9.000E+00
      12     1     3     3     0     0 -6.093734218E-01  1.615097814E+00  2.446189920E+02  2.446250828E+02  5.394796609E-06  0.00000E+00  9.000E+00
      21     1     1     2   501   502 -1.020272387E+01 -1.732927390E+00  1.023517892E+01  1.455532546E+01  6.637292341E-07  0.00000E+00  9.000E+00
      21     1     1     2   512   501 -2.461630787E+00 -7.051082826E-01  1.768528700E+01  1.786970006E+01  2.384185791E-07  0.00000E+00  9.000E+00
</event>
<event>
      7    666  1.00000E+00  3.08261E+00 -1.00000E+00  2.93198E-01
      -1    -1     0     0     0   512  0.000000000E+00  0.000000000E+00  5.460927679E+00  5.460927679E+00  0.000000000E+00  0.00000E+00  9.000E+00
       2    -1     0     0   501     0  0.000000000E+00  0.000000000E+00 -4.761069266E+02  4.761069266E+02  0.000000000E+00  0.00000E+00  9.000E+00
      24     2     1     2     0     0  5.952914979E+00 -4.427671173E+00 -3.564566789E+02  3.655732538E+02  8.079231693E+01  0.00000E+00  9.000E+00
     -11     1     3     3     0     0 -2.451269483E+01  2.462660610E+01 -1.045439317E+02  1.101670350E+02  5.109989100E-04  0.00000E+00  9.000E+00
      12     1     3     3     0     0  3.046560981E+01 -2.905427728E+01 -2.519127472E+02  2.554062188E+02  2.697398305E-06  0.00000E+00  9.000E+00
      21     1     1     2   501   502 -8.288572116E+00  2.415905506E+00 -1.116979008E+02  1.120310586E+02  2.336015456E-06  0.00000E+00  9.000E+00
      21     1     1     2   502   512  2.335657137E+00  2.011765667E+00 -2.491419203E+00  3.963541977E+00  1.460009660E-07  0.00000E+00  9.000E+00
</event>
<event>
      7    666  1.00000E+00  1.45427E+01 -1.00000E+00  1.78612E-01
      21    -1     0     0   511   501  0.000000000E+00  0.000000000E+00  5.479357911E+02  5.479357911E+02  0.000000000E+00  0.00000E+00  9.000E+00
       2    -1     0     0   501     0  0.000000000E+00  0.000000000E+00 -7.314584909E+01  7.314584909E+01  0.000000000E+00  0.00000E+00  9.000E+00
      24     2     1     2     0     0 -1.994965087E+01  8.604836837E+00 -4.084751066E+01  9.193847213E+01  7.944892538E+01  0.00000E+00  9.000E+00
     -11     1     3     3     0     0 -9.659947060E+00  1.448979161E+01  2.195728859E+01  2.802483114E+01  5.109989100E-04  0.00000E+00  9.000E+00
      12     1     3     3     0     0 -1.028970381E+01 -5.884954772E+00 -6.280479925E+01  6.391364100E+01  9.536743164E-07  0.00000E+00  9.000E+00
       1     1     1     2   502     0  2.312281146E+01  5.587423525E+00  1.463496764E+01  2.792966146E+01  0.000000000E+00  0.00000E+00  9.000E+00
      21     1     1     2   511   502 -3.173160582E+00 -1.419226036E+01  5.010024850E+02  5.012135066E+02  7.629394531E-06  0.00000E+00  9.000E+00
</event>
<event>
      7    666  1.00000E+00  1.52764E+01 -1.00000E+00  1.76593E-01
      21    -1     0     0   511   501  0.000000000E+00  0.000000000E+00  5.235534024E+00  5.235534024E+00  0.000000000E+00  0.00000E+00  9.000E+00
       2    -1     0     0   501     0  0.000000000E+00  0.000000000E+00 -1.550073967E+03  1.550073967E+03  0.000000000E+00  0.00000E+00  9.000E+00
      24     2     1     2     0     0 -6.823959629E+00 -5.713577177E+00 -1.469754924E+03  1.471891102E+03  7.876972803E+01  0.00000E+00  9.000E+00
     -11     1     3     3     0     0  3.413703023E+01  8.826229582E+00 -7.451233757E+02  7.459571597E+02  5.109989100E-04  0.00000E+00  9.000E+00
      12     1     3     3     0     0 -4.096098986E+01 -1.453980676E+01 -7.246315482E+02  7.259339428E+02  1.078959322E-05  0.00000E+00  9.000E+00
       1     1     1     2   502     0  1.480186020E+01 -7.314189533E+00 -5.887169202E+01  6.114301723E+01  0.000000000E+00  0.00000E+00  9.000E+00
      21     1     1     2   511   502 -7.977900575E+00  1.302776671E+01 -1.621181752E+01  2.227538171E+01  6.307962682E-07  0.00000E+00  9.000E+00
</event>
<event>
      7    666  1.00000E+00  7.05873E+00 -1.00000E+00  2.14971E-01
      -1    -1     0     0     0   502  0.000000000E+00  0.000000000E+00  6.737672198E+00  6.737672198E+00  0.000000000E+00  0.00000E+00  9.000E+00
       2    -1     0     0   501     0  0.000000000E+00  0.000000000E+00 -4.524192944E+02  4.524192944E+02  0.000000000E+00  0.00000E+00  9.000E+00
      24     2     1     2     0     0  1.691112730E+00 -8.963841392E+00 -2.425663466E+02  2.557891133E+02  8.066243017E+01  0.00000E+00  9.000E+00
     -11     1     3     3     0     0 -1.120655695E+01 -1.461555448E+01 -6.846164902E+00  1.964869781E+01  5.109989100E-04  0.00000E+00  9.000E+00
      12     1     3     3     0     0  1.289766968E+01  5.651713093E+00 -2.357201817E+02  2.361404155E+02  0.000000000E+00  0.00000E+00  9.000E+00
      21     1     1     2   512   502  4.709060025E-01  8.532598575E-01 -5.918826950E+01  5.919629255E+01  1.348699152E-06  0.00000E+00  9.000E+00
      21     1     1     2   501   512 -2.162018732E+00  8.110581534E+00 -1.439270061E+02  1.441715608E+02  2.697398305E-06  0.00000E+00  9.000E+00
</event>
<event>
      7    666  1.00000E+00  2.35012E+01 -1.00000E+00  1.60750E-01
      21    -1     0     0   502   501  0.000000000E+00  0.000000000E+00  6.057186919E+02  6.057186919E+02  0.000000000E+00  0.00000E+00  9.000E+00
      -3    -1     0     0     0   502  0.000000000E+00  0.000000000E+00 -1.326206306E+01  1.326206306E+01  0.000000000E+00  0.00000E+00  9.000E+00
      24     2     1     2     0     0 -3.317956996E+01 -3.866775938E+01  1.979971821E+02  2.196300329E+02  8.023956490E+01  0.00000E+00  9.000E+00
     -11     1     3     3     0     0 -4.492960673E+01 -2.831968931E+01  5.754458373E+01  7.830742928E+01  5.109989100E-04  0.00000E+00  9.000E+00
      12     1     3     3     0     0  1.175003677E+01 -1.034807008E+01  1.404525984E+02  1.413226037E+02  1.907348633E-06  0.00000E+00  9.000E+00
      -4     1     1     2     0   511  3.065380240E+01  1.636248691E+01  3.106430509E+02  3.125803763E+02  0.000000000E+00  0.00000E+00  9.000E+00
      21     1     1     2   511   501  2.525767565E+00  2.230527247E+01  8.381639585E+01  8.677034572E+01  9.536743164E-07  0.00000E+00  9.000E+00
</event>
<event>
      7    666  1.00000E+00  5.93483E+00 -1.00000E+00  2.26132E-01
      21    -1     0     0   512   501  0.000000000E+00  0.000000000E+00  6.879816400E+00  6.879816400E+00  0.000000000E+00  0.00000E+00  9.000E+00
      -3    -1     0     0     0   502  0.000000000E+00  0.000000000E+00 -3.608593209E+02  3.608593209E+02  0.000000000E+00  0.00000E+00  9.000E+00
      24     2     1     2     0     0  4.048709249E+00  9.189606503E+00 -3.357718436E+02  3.454096507E+02  8.040059016E+01  0.00000E+00  9.000E+00
     -11     1     3     3     0     0  4.888326520E+00 -2.936527517E+01 -2.447724165E+02  2.465760552E+02  5.109989100E-04  0.00000E+00  9.000E+00
      12     1     3     3     0     0 -8.396172711E-01  3.855488167E+01 -9.099942715E+01  9.883359550E+01  1.907348633E-06  0.00000E+00  9.000E+00
      -4     1     1     2     0   501 -5.708133778E+00 -3.491487554E+00 -1.201192348E+01  1.374989390E+01  0.000000000E+00  0.00000E+00  9.000E+00
      21     1     1     2   512   502  1.659424530E+00 -5.698118950E+00 -6.195737395E+00  8.579592718E+00  1.192092896E-07  0.00000E+00  9.000E+00
</event>
<event>
      7    666  1.00000E+00  7.63277E+00 -1.00000E+00  2.10307E-01
      21    -1     0     0   502   501  0.000000000E+00  0.000000000E+00  9.773768468E+01  9.773768468E+01  0.000000000E+00  0.00000E+00  9.000E+00
       2    -1     0     0   511     0  0.000000000E+00  0.000000000E+00 -1.155208947E+02  1.155208947E+02  0.000000000E+00  0.00000E+00  9.000E+00
      24     2     1     2     0     0  1.119030568E+00  6.952198593E+00 -7.348975012E+01  1.093056597E+02  8.060644257E+01  0.00000E+00  9.000E+00
     -11     1     3     3     0     0  6.967821397E+00 -6.420736324E+00  1.602074857E+01  1.861291957E+01  5.109989100E-04  0.00000E+00  9.000E+00
      12     1     3     3     0     0 -5.848790829E+00  1.337293492E+01 -8.951049870E+01  9.069274017E+01  9.536743164E-07  0.00000E+00  9.000E+00
       1     1     1     2   502     0  6.411401072E+00 -5.706518766E+00  7.898760117E+01  7.945257427E+01  0.000000000E+00  0.00000E+00  9.000E+00
      21     1     1     2   511   501 -7.530431640E+00 -1.245679827E+00 -2.328106111E+01  2.450034541E+01  3.371747881E-07  0.00000E+00  9.000E+00
</event>
<event>
      7    666  1.00000E+00  1.62462E+01 -1.00000E+00  1.74134E-01
       2    -1     0     0   501     0  0.000000000E+00  0.000000000E+00  1.770226637E+02  1.770226637E+02  0.000000000E+00  0.00000E+00  9.000E+00
      21    -1     0     0   511   502  0.000000000E+00  0.000000000E+00 -4.349311696E+01  4.349311696E+01  0.000000000E+00  0.00000E+00  9.000E+00
      24     2     1     2     0     0 -2.606889131E+01  1.378878880E+01  1.529951604E+02  1.754728085E+02  8.070606941E+01  0.00000E+00  9.000E+00
     -11     1     3     3     0     0 -5.441681869E-02 -2.219098893E+01  7.610733620E+00  2.345988528E+01  5.109989100E-04  0.00000E+00  9.000E+00
      12     1     3     3     0     0 -2.601447450E+01  3.597977773E+01  1.453844268E+02  1.520129233E+02  2.697398305E-06  0.00000E+00  9.000E+00
      21     1     1     2   501   502  1.773421835E+01  1.565395176E-01 -2.236163975E+01  2.854067164E+01  1.192092896E-06  0.00000E+00  9.000E+00
       1     1     1     2   511     0  8.334672959E+00 -1.394532831E+01  2.896026129E+00  1.650230052E+01  0.000000000E+00  0.00000E+00  9.000E+00
</event>
<event>
      7    666  1.00000E+00  3.78713E+01 -1.00000E+00  1.46297E-01
       2    -1     0     0   501     0  0.000000000E+00  0.000000000E+00  1.019476341E+02  1.019476341E+02  0.000000000E+00  0.00000E+00  9.000E+00
      21    -1     0     0   502   501  0.000000000E+00  0.000000000E+00 -3.747392807E+01  3.747392807E+01  0.000000000E+00  0.00000E+00  9.000E+00
      24     2     1     2     0     0 -4.652326930E+00  8.068503419E+00  7.443916604E+01  1.099049667E+02  8.031915945E+01  0.00000E+00  9.000E+00
     -11     1     3     3     0     0 -9.631887842E-01 -1.926479419E+01 -9.535300002E+00  2.151701593E+01  5.109989100E-04  0.00000E+00  9.000E+00
      12     1     3     3     0     0 -3.689138146E+00  2.733329761E+01  8.397446605E+01  8.838795080E+01  2.336015456E-06  0.00000E+00  9.000E+00
       1     1     1     2   512     0  1.175414970E+01  1.866054702E+00  2.396131820E+00  1.214016651E+01  0.000000000E+00  0.00000E+00  9.000E+00
      21     1     1     2   502   512 -7.101822768E+00 -9.934558121E+00 -1.236159180E+01  1.737642896E+01  1.079486029E-06  0.00000E+00  9.000E+00
</event>
<event>
      7    666  1.00000E+00  7.32461E+00 -1.00000E+00  2.12739E-01
      21    -1     0     0   502   501  0.000000000E+00  0.000000000E+00  7.520092999E+00  7.520092999E+00  0.000000000E+00  0.00000E+00  9.000E+00
       1    -1     0     0   501     0  0.000000000E+00  0.000000000E+00 -9.274520419E+02  9.274520419E+02  0.000000000E+00  0.00000E+00  9.000E+00
     -24     2     1     2     0     0 -1.724940130E+01 -7.082429879E-02 -8.852169576E+02  8.892653634E+02  8.298359874E+01  0.00000E+00  9.000E+00
      11     1     3     3     0     0 -2.366221464E+01 -1.670701175E+01 -8.422250927E+02  8.427230455E+02  5.109989100E-04  0.00000E+00  9.000E+00
     -12     1     3     3     0     0  6.412813335E+00  1.663618745E+01 -4.299186488E+01  4.654231788E+01  1.066240300E-06  0.00000E+00  9.000E+00
       2     1     1     2   511     0  2.031344566E+01 -3.969796139E+00 -1.556622388E+01  2.589792814E+01  0.000000000E+00  0.00000E+00  9.000E+00
      21     1     1     2   502   511 -3.064044361E+00  4.040620438E+00 -1.914876743E+01  1.980884337E+01  3.371747881E-07  0.00000E+00  9.000E+00
</event>
<event>
      7    666  1.00000E+00  1.20844E+01 -1.00000E+00  1.86656E-01
       2    -1     0     0   501     0  0.000000000E+00  0.000000000E+00  1.203810834E+02  1.203810834E+02  0.000000000E+00  0.00000E+00  9.000E+00
      21    -1     0     0   502   501  0.000000000E+00  0.000000000E+00 -2.314334339E+01  2.314334339E+01  0.000000000E+00  0.00000E+00  9.000E+00
      24     2     1     2     0     0  3.065705068E+00 -6.151798990E+00  1.040667513E+02  1.321951977E+02  8.123077234E+01  0.00000E+00  9.000E+00
     -11     1     3     3     0     0 -3.713953184E+01  8.839716966E+00  4.222335992E+01  5.692361149E+01  5.109989100E-04  0.00000E+00  9.000E+00
      12     1     3     3     0     0  4.020523691E+01 -1.499151596E+01  6.184339141E+01  7.527158618E+01  9.536743164E-07  0.00000E+00  9.000E+00
       1     1     1     2   511     0  3.906891493E-01  3.029172189E+00  1.038301659E-02  3.054280598E+00  0.000000000E+00  0.00000E+00  9.000E+00
      21     1     1     2   502   511 -3.456394217E+00  3.122626801E+00 -6.839394312E+00  8.274948561E+00  1.253115895E-06  0.00000E+00  9.000E+00
</event>
<event>
      7    666  1.00000E+00  2.43421E+00 -1.00000E+00  3.27265E-01
       2    -1     0     0   501     0  0.000000000E+00  0.000000000E+00  3.185297150E+00  3.185297150E+00  0.000000000E+00  0.00000E+00  9.000E+00
      -1    -1     0     0     0   512  0.000000000E+00  0.000000000E+00 -7.780687930E+02  7.780687930E+02  0.000000000E+00  0.00000E+00  9.000E+00
      24     2     1     2     0     0 -7.581082735E+00  3.088887175E+00 -5.418007696E+02  5.476075088E+02  7.911318323E+01  0.00000E+00  9.000E+00
     -11     1     3     3     0     0 -4.384256125E+00 -3.030525921E+01 -4.245285372E+02  4.256314243E+02  5.109989100E-04  0.00000E+00  9.000E+00
      12     1     3     3     0     0 -3.196826610E+00  3.339414638E+01 -1.172722324E+02  1.219760846E+02  1.348699152E-06  0.00000E+00  9.000E+00
      21     1     1     2   501   502  6.751278817E+00 -8.004860255E-01 -4.187004357E+01  4.241840511E+01  9.536743164E-07  0.00000E+00  9.000E+00
      21     1     1     2   502   512  8.298039174E-01 -2.288401149E+00 -1.912126827E+02  1.912281762E+02  2.697398305E-06  0.00000E+00  9.000E+00
</event>
<event>
      7    666  1.00000E+00  1.76798E+01 -1.00000E+00  1.70868E-01
      21    -1     0     0   502   501  0.000000000E+00  0.000000000E+00  1.378688948E+02  1.378688948E+02  0.000000000E+00  0.00000E+00  9.000E+00
      -3    -1     0     0     0   502  0.000000000E+00  0.000000000E+00 -2.427178563E+01  2.427178563E+01  0.000000000E+00  0.00000E+00  9.000E+00
      24     2     1     2     0     0  7.092357789E+00 -2.601217798E+00  5.852581019E+01  9.900918166E+01  7.950144477E+01  0.00000E+00  9.000E+00
     -11     1     3     3     0     0 -2.451457225E+01  2.043463552E+01  4.377581629E+00  3.221337924E+01  5.109989100E-04  0.00000E+00  9.000E+00
      12     1     3     3     0     0  3.160693003E+01 -2.303585331E+01  5.414822856E+01  6.679580242E+01  6.743495762E-07  0.00000E+00  9.000E+00
      -4     1     1     2     0   511 -7.830618043E+00  3.512945029E+00  5.869678926E+01  5.932092743E+01  0.000000000E+00  0.00000E+00  9.000E+00
      21     1     1     2   511   501  7.382602542E-01 -9.117272316E-01 -3.625490243E+00  3.810571381E+00  7.177349674E-07  0.00000E+00  9.000E+00
</event>
<event>
      7    666  1.00000E+00  2.84347E+01 -1.00000E+00  1.54638E-01
      21    -1     0     0   502   501  0.000000000E+00  0.000000000E+00  9.498129111E+00  9.498129111E+00  0.000000000E+00  0.00000E+00  9.000E+00
       2    -1     0     0   501     0  0.000000000E+00  0.000000000E+00 -1.167638442E+03  1.167638442E+03  0.000000000E+00  0.00000E+00  9.000E+00
      24     2     1     2     0     0  3.443078137E+01 -1.338413820E+01 -1.108222268E+03  1.111765457E+03  8.063015656E+01  0.00000E+00  9.000E+00
     -11     1     3     3     0     0 -1.404094239E+01 -3.057902430E+01 -2.937416593E+02  2.956626240E+02  5.109989100E-04  0.00000E+00  9.000E+00
      12     1     3     3     0     0  4.847172376E+01  1.719488610E+01 -8.144806084E+02  8.161028327E+02  1.078959322E-05  0.00000E+00  9.000E+00
       1     1     1     2   511     0 -1.987836704E+01  6.777995425E+00 -4.320033102E+01  4.803497995E+01  0.000000000E+00  0.00000E+00  9.000E+00
      21     1     1     2   502   511 -1.455241434E+01  6.606142772E+00 -6.717714620E+00  1.733613495E+01  1.719260824E-06  0.00000E+00  9.000E+00
</event>
<event>
      7    666  1.00000E+00  8.30494E+00 -1.00000E+00  2.05504E-01
       2    -1     0     0   501     0  0.000000000E+00  0.000000000E+00  1.102641309E+03  1.102641309E+03  0.000000000E+00  0.00000E+00  9.000E+00
      21    -1     0     0   502   501  0.000000000E+00  0.000000000E+00 -1.967408323E+00  1.967408323E+00  0.000000000E+00  0.00000E+00  9.000E+00
      24     2     1     2     0     0  2.386755991E+00  6.197910850E+00  9.928977692E+02  9.959967322E+02  7.822659254E+01  0.00000E+00  9.000E+00
     -11     1     3     3     0     0 -3.118014291E+01  6.808935235E+00  2.131014103E+02  2.154780127E+02  5.109989100E-04  0.00000E+00  9.000E+00
      12     1     3     3     0     0  3.356689890E+01 -6.110243848E-01  7.797963589E+02  7.805187195E+02  1.078959322E-05  0.00000E+00  9.000E+00
       1     1     1     2   511     0 -6.797911488E+00 -5.929788137E+00  7.414868679E+01  7.469539303E+01  0.000000000E+00  0.00000E+00  9.000E+00
      21     1     1     2   502   511  4.411155497E+00 -2.681227127E-01  3.362744519E+01  3.391659258E+01  8.259061849E-07  0.00000E+00  9.000E+00
</event>
<event>
      7    666  1.00000E+00  9.09047E+00 -1.00000E+00  2.00608E-01
       3    -1     0     0   511     0  0.000000000E+00  0.000000000E+00  2.474866247E+00  2.474866247E+00  0.000000000E+00  0.00000E+00  9.000E+00
      -4    -1     0     0     0   502  0.000000000E+00  0.000000000E+00 -1.142728043E+03  1.142728043E+03  0.000000000E+00  0.00000E+00  9.000E+00
     -24     2     1     2     0     0 -1.140727272E+01  3.493376802E+00 -7.392930327E+02  7.435858323E+02  7.888835372E+01  0.00000E+00  9.000E+00
      11     1     3     3     0     0 -3.388105708E+01  2.717465566E+01 -3.063376774E+02  3.094012937E+02  5.109989100E-04  0.00000E+00  9.000E+00
     -12     1     3     3     0     0  2.247378436E+01 -2.368127886E+01 -4.329553553E+02  4.341845387E+02  5.394796609E-06  0.00000E+00  9.000E+00
      21     1     1     2   501   502  8.363248474E+00  5.072285273E+00 -3.197786471E+02  3.199282031E+02  7.629394531E-06  0.00000E+00  9.000E+00
      21     1     1     2   511   501  3.044024243E+00 -8.565662074E+00 -8.118149744E+01  8.168887425E+01  9.536743164E-07  0.00000E+00  9.000E+00
</event>
<event>
      7    666  1.00000E+00  3.61752E+00 -1.00000E+00  2.74080E-01
      21    -1     0     0   512   502  0.000000000E+00  0.000000000E+00  2.626681497E+01  2.626681497E+01  0.000000000E+00  0.00000E+00  9.000E+00
       1    -1     0     0   501     0  0.000000000E+00  0.000000000E+00 -2.290113506E+02  2.290113506E+02  0.000000000E+00  0.00000E+00  9.000E+00
     -24     2     1     2     0     0  6.182843032E+00 -6.157895225E+00 -1.872265831E+02  2.027906047E+02  7.742150037E+01  0.00000E+00  9.000E+00
      11     1     3     3     0     0 -2.257961136E+01 -1.359749499E+01 -1.610562000E+02  1.631987447E+02  5.109989100E-04  0.00000E+00  9.000E+00
     -12     1     3     3     0     0  2.876245439E+01  7.439599766E+00 -2.617038315E+01  3.959186005E+01  4.768371582E-07  0.00000E+00  9.000E+00
      21     1     1     2   501   502 -8.206300890E+00  3.159219300E+00 -3.324853699E+01  3.439170326E+01  4.768371582E-07  0.00000E+00  9.000E+00
       2     1     1     2   512     0  2.023457858E+00  2.998675926E+00  1.773058443E+01  1.809585763E+01  0.000000000E+00  0.00000E+00  9.000E+00
</event>
<event>
      7    666  1.00000E+00  6.31139E+00 -1.00000E+00  2.22036E-01
      -2    -1     0     0     0   502  0.000000000E+00  0.000000000E+00  1.590847496E+02  1.590847496E+02  0.000000000E+00  0.00000E+00  9.000E+00
      21    -1     0     0   512   501  0.000000000E+00  0.000000000E+00 -4.182234709E+01  4.182234709E+01  0.000000000E+00  0.00000E+00  9.000E+00
     -24     2     1     2     0     0 -4.305028124E+00 -2.962282634E+00  1.463171238E+02  1.666830296E+02  7.966946264E+01  0.00000E+00  9.000E+00
      11     1     3     3     0     0  3.142870612E+01  9.553005008E+00  3.046568375E+01  4.480157764E+01  5.109989100E-04  0.00000E+00  9.000E+00
     -12     1     3     3     0     0 -3.573373424E+01 -1.251528764E+01  1.158514400E+02  1.218814520E+02  1.348699152E-06  0.00000E+00  9.000E+00
      -1     1     1     2     0   501  8.411417496E+00 -1.830551116E+00 -6.455107274E+00  1.075970593E+01  0.000000000E+00  0.00000E+00  9.000E+00
      21     1     1     2   512   502 -4.106389372E+00  4.792833749E+00 -2.259961401E+01  2.346436111E+01  5.331201500E-07  0.00000E+00  9.000E+00
</event>
</LesHouchesEvents>
