<LesHouchesEvents version="1.0">
<header>
<!--
#*********************************************************************
#                                                                    *
#                            MadGraph 5                              *
#                                                                    *
#                           Going Beyond                             *
#                                                                    *
#                   http://madgraph.hep.uiuc.edu                     *
#                   http://madgraph.phys.ucl.ac.be                   *
#                   http://madgraph.roma2.infn.it                    *
#                                                                    *
#                         The MadGraph team                          *
#                                                                    *
#....................................................................*
#                                                                    *
# This file contains all the information necessary to reproduce      *
# the events generated:                                              *
#                                                                    *
# 1. software version                                                *
# 2. proc_card          : code generation info including model       *
# 3. param_card         : model primary parameters in the LH format  *
# 4. run_card           : running parameters (collider and cuts)     *
# 5. pythia_card        : present only if pythia has been run        *
# 6. pgs_card           : present only if pgs has been run           *
# 7. delphes_cards      : present only if delphes has been run       *
#                                                                    *
#                                                                    *
#*********************************************************************
-->
<MGVersion>
# MG    version    : 5.1.5.5
</MGVersion>
<MG5ProcCard>
#************************************************************
#*                        MadGraph 5                        *
#*                                                          *
#*                *                       *                 *
#*                  *        * *        *                   *
#*                    * * * * 5 * * * *                     *
#*                  *        * *        *                   *
#*                *                       *                 *
#*                                                          *
#*                                                          *
#*         VERSION 1.5.5                 2012-11-18         *
#*                                                          *
#*    The MadGraph Development Team - Please visit us at    *
#*    https://server06.fynu.ucl.ac.be/projects/madgraph     *
#*                                                          *
#************************************************************
#*                                                          *
#*               Command File for MadGraph 5                *
#*                                                          *
#*     run as ./bin/mg5  filename                           *
#*                                                          *
#************************************************************
set group_subprocesses Auto
set ignore_six_quark_processes False
set gauge unitary
set complex_mass_scheme False
import model sm
define p = g u c d s u~ c~ d~ s~
define j = g u c d s u~ c~ d~ s~
define l+ = e+ mu+
define l- = e- mu-
define vl = ve vm vt
define vl~ = ve~ vm~ vt~
# Specify process(es) to run
generate p p > w+ j , w+ > e+ ve QED=2 @1
add process p p > w- j , w- > e- ve~ QED=2 @2
# Output processes to MadEvent directory
output -f
</MG5ProcCard>
<MGProcCard>
#*********************************************************************
#                        MadGraph/MadEvent                           *
#                   http://madgraph.hep.uiuc.edu                     *
#                                                                    *
#                          proc_card.dat                             *
#*********************************************************************
#                                                                    *
#            This Files is generated by MADGRAPH 5                   *
#                                                                    *
# WARNING: This Files is generated for MADEVENT (compatibility issue)*
#          This files is NOT a valid MG4 proc_card.dat               *
#          Running this in MG4 will NEVER reproduce the result of MG5*
#                                                                    *
#*********************************************************************
#*********************************************************************
# Process(es) requested : mg2 input                                  *
#*********************************************************************
# Begin PROCESS # This is TAG. Do not modify this line
p p > w+ j , w+ > e+ ve @1           #Process
# Be carefull the coupling are here in MG5 convention
QED=2
end_coup           # End the couplings input
done               # this tells MG there are no more procs
# End PROCESS  # This is TAG. Do not modify this line
#*********************************************************************
# Model information                                                  *
#*********************************************************************
# Begin MODEL  # This is TAG. Do not modify this line
sm
# End   MODEL  # This is TAG. Do not modify this line
#*********************************************************************
# Start multiparticle definitions                                    *
#*********************************************************************
# Begin MULTIPARTICLES # This is TAG. Do not modify this line
# End  MULTIPARTICLES # This is TAG. Do not modify this line
</MGProcCard>
<slha>
######################################################################
## PARAM_CARD AUTOMATICALY GENERATED BY MG5 FOLLOWING UFO MODEL   ####
######################################################################
##                                                                  ##
##  Width set on Auto will be computed following the information    ##
##        present in the decay.py files of the model. By default,   ##
##        this is only 1->2 decay modes.                            ##
##                                                                  ##
######################################################################
###################################
## INFORMATION FOR MASS
###################################
Block mass 
    5 4.700000e+00 # MB 
    6 1.730000e+02 # MT 
   15 1.777000e+00 # MTA 
   23 9.118800e+01 # MZ 
   25 1.200000e+02 # MH 
##  Not dependent paramater.
## Those values should be edited following the 
## analytical expression. MG5 ignore those values 
## but they are important for interfacing the output of MG5
## to external program such as Pythia.
  1 0.000000 # d : 0.0 
  2 0.000000 # u : 0.0 
  3 0.000000 # s : 0.0 
  4 0.000000 # c : 0.0 
  11 0.000000 # e- : 0.0 
  12 0.000000 # ve : 0.0 
  13 0.000000 # mu- : 0.0 
  14 0.000000 # vm : 0.0 
  16 0.000000 # vt : 0.0 
  21 0.000000 # g : 0.0 
  22 0.000000 # a : 0.0 
  24 80.419002 # w+ : cmath.sqrt(MZ__exp__2/2. + cmath.sqrt(MZ__exp__4/4. - (aEW*cmath.pi*MZ__exp__2)/(Gf*sqrt__2))) 
###################################
## INFORMATION FOR SMINPUTS
###################################
Block sminputs 
    1 1.325070e+02 # aEWM1 
    2 1.166390e-05 # Gf 
    3 1.180000e-01 # aS 
###################################
## INFORMATION FOR YUKAWA
###################################
Block yukawa 
    5 4.200000e+00 # ymb 
    6 1.645000e+02 # ymt 
   15 1.777000e+00 # ymtau 
###################################
## INFORMATION FOR DECAY
###################################
DECAY   6 1.491500e+00 # WT 
DECAY  23 2.441404e+00 # WZ 
DECAY  24 2.047600e+00 # WW 
DECAY  25 5.753088e-03 # WH 
##  Not dependent paramater.
## Those values should be edited following the 
## analytical expression. MG5 ignore those values 
## but they are important for interfacing the output of MG5
## to external program such as Pythia.
DECAY  1 0.000000 # d : 0.0 
DECAY  2 0.000000 # u : 0.0 
DECAY  3 0.000000 # s : 0.0 
DECAY  4 0.000000 # c : 0.0 
DECAY  5 0.000000 # b : 0.0 
DECAY  11 0.000000 # e- : 0.0 
DECAY  12 0.000000 # ve : 0.0 
DECAY  13 0.000000 # mu- : 0.0 
DECAY  14 0.000000 # vm : 0.0 
DECAY  15 0.000000 # ta- : 0.0 
DECAY  16 0.000000 # vt : 0.0 
DECAY  21 0.000000 # g : 0.0 
DECAY  22 0.000000 # a : 0.0 
</slha>
<MGRunCard>
#*********************************************************************
#                       MadGraph/MadEvent                            *
#                  http://madgraph.hep.uiuc.edu                      *
#                                                                    *
#                        run_card.dat                                *
#                                                                    *
#  This file is used to set the parameters of the run.               *
#                                                                    *
#  Some notation/conventions:                                        *
#                                                                    *
#   Lines starting with a '# ' are info or comments                  *
#                                                                    *
#   mind the format:   value    = variable     ! comment             *
#*********************************************************************
#
#*******************                                                 
# Running parameters
#*******************                                                 
#                                                                    
#*********************************************************************
# Tag name for the run (one word)                                    *
#*********************************************************************
  tag_1     = run_tag ! name of the run 
#*********************************************************************
# Run to generate the grid pack                                      *
#*********************************************************************
  .false.     = gridpack  !True = setting up the grid pack
#*********************************************************************
# Number of events and rnd seed                                      *
# Warning: Do not generate more than 1M events in a single run       *
# If you want to run Pythia, avoid more than 50k events in a run.    *
#*********************************************************************
  1000        = nevents ! Number of unweighted events requested 
      396 = iseed   ! rnd seed (0=assigned automatically=default))
#*********************************************************************
# Collider type and energy                                           *
# lpp: 0=No PDF, 1=proton, -1=antiproton, 2=photon from proton,      *
#                                         3=photon from electron     *
#*********************************************************************
        1     = lpp1    ! beam 1 type 
        1     = lpp2    ! beam 2 type
     3500     = ebeam1  ! beam 1 total energy in GeV
     3500     = ebeam2  ! beam 2 total energy in GeV
#*********************************************************************
# Beam polarization from -100 (left-handed) to 100 (right-handed)    *
#*********************************************************************
        0     = polbeam1 ! beam polarization for beam 1
        0     = polbeam2 ! beam polarization for beam 2
#*********************************************************************
# PDF CHOICE: this automatically fixes also alpha_s and its evol.    *
#*********************************************************************
 'lhapdf'    = pdlabel     ! PDF set                                  
 10042       = lhaid          ! PDF set cteq6m
#*********************************************************************
# Renormalization and factorization scales                           *
#*********************************************************************
 T        = fixed_ren_scale  ! if .true. use fixed ren scale
 T        = fixed_fac_scale  ! if .true. use fixed fac scale
 91.1880  = scale            ! fixed ren scale
 80.4     = dsqrt_q2fact1    ! fixed fact scale for pdf1
 80.4     = dsqrt_q2fact2    ! fixed fact scale for pdf2
 1        = scalefact        ! scale factor for event-by-event scales
#*********************************************************************
# Matching - Warning! ickkw > 1 is still beta
#*********************************************************************
 0        = ickkw            ! 0 no matching, 1 MLM, 2 CKKW matching
 1        = highestmult      ! for ickkw=2, highest mult group
 1        = ktscheme         ! for ickkw=1, 1 Durham kT, 2 Pythia pTE
 1        = alpsfact         ! scale factor for QCD emission vx
 F        = chcluster        ! cluster only according to channel diag
 F        = pdfwgt           ! for ickkw=1, perform pdf reweighting
#*********************************************************************
# Automatic ptj and mjj cuts if xqcut > 0
# (turn off for VBF and single top processes)
#**********************************************************
   F  = auto_ptj_mjj  ! Automatic setting of ptj and mjj
#**********************************************************
#                                                                    
#**********************************
# BW cutoff (M+/-bwcutoff*Gamma)
#**********************************
  5  = bwcutoff      ! (M+/-bwcutoff*Gamma)
#**********************************************************
# Apply pt/E/eta/dr/mij cuts on decay products or not
# (note that etmiss/ptll/ptheavy/ht/sorted cuts always apply)
#**********************************************************
   F  = cut_decays    ! Cut decay products 
#*************************************************************
# Number of helicities to sum per event (0 = all helicities)
# 0 gives more stable result, but longer run time (needed for
# long decay chains e.g.).
# Use >=2 if most helicities contribute, e.g. pure QCD.
#*************************************************************
   0  = nhel          ! Number of helicities used per event
#*******************                                                 
# Standard Cuts
#*******************                                                 
#                                                                    
#*********************************************************************
# Minimum and maximum pt's (for max, -1 means no cut)                *
#*********************************************************************
  5 = ptj       ! minimum pt for the jets 
  0 = ptb       ! minimum pt for the b 
  0  = pta       ! minimum pt for the photons 
  0  = ptl       ! minimum pt for the charged leptons 
  0  = misset    ! minimum missing Et (sum of neutrino's momenta)
  0  = ptheavy   ! minimum pt for one heavy final state
  0  = ptonium   ! minimum pt for the quarkonium states
 -1  = ptjmax    ! maximum pt for the jets
 -1  = ptbmax    ! maximum pt for the b
 -1  = ptamax    ! maximum pt for the photons
 -1  = ptlmax    ! maximum pt for the charged leptons
 -1  = missetmax ! maximum missing Et (sum of neutrino's momenta)
#*********************************************************************
# Minimum and maximum E's (in the lab frame)                         *
#*********************************************************************
  0  = ej     ! minimum E for the jets 
  0  = eb     ! minimum E for the b 
  0  = ea     ! minimum E for the photons 
  0  = el     ! minimum E for the charged leptons 
 -1   = ejmax ! maximum E for the jets
 -1   = ebmax ! maximum E for the b
 -1   = eamax ! maximum E for the photons
 -1   = elmax ! maximum E for the charged leptons
#*********************************************************************
# Maximum and minimum absolute rapidity (for max, -1 means no cut)   *
#*********************************************************************
  -1  = etaj    ! max rap for the jets 
  -1  = etab    ! max rap for the b
  -1  = etaa    ! max rap for the photons 
  -1  = etal    ! max rap for the charged leptons 
  -1  = etaonium ! max rap for the quarkonium states
   0  = etajmin ! min rap for the jets
   0  = etabmin ! min rap for the b
   0  = etaamin ! min rap for the photons
   0  = etalmin ! main rap for the charged leptons
#*********************************************************************
# Minimum and maximum DeltaR distance                                *
#*********************************************************************
 1d-2 = drjj    ! min distance between jets 
 0    = drbb    ! min distance between b's 
 0    = drll    ! min distance between leptons 
 0    = draa    ! min distance between gammas 
 0    = drbj    ! min distance between b and jet 
 0   = draj    ! min distance between gamma and jet 
 0   = drjl    ! min distance between jet and lepton 
 0   = drab    ! min distance between gamma and b 
 0   = drbl    ! min distance between b and lepton 
 0   = dral    ! min distance between gamma and lepton 
 -1  = drjjmax ! max distance between jets
 -1  = drbbmax ! max distance between b's
 -1  = drllmax ! max distance between leptons
 -1  = draamax ! max distance between gammas
 -1  = drbjmax ! max distance between b and jet
 -1  = drajmax ! max distance between gamma and jet
 -1  = drjlmax ! max distance between jet and lepton
 -1  = drabmax ! max distance between gamma and b
 -1  = drblmax ! max distance between b and lepton
 -1  = dralmax ! maxdistance between gamma and lepton
#*********************************************************************
# Minimum and maximum invariant mass for pairs                       *
#*********************************************************************
 5.0 = mmjj    ! min invariant mass of a jet pair 
 0   = mmbb    ! min invariant mass of a b pair 
 0   = mmaa    ! min invariant mass of gamma gamma pair
 0   = mmll    ! min invariant mass of l+l- (same flavour) lepton pair
 -1  = mmjjmax ! max invariant mass of a jet pair
 -1  = mmbbmax ! max invariant mass of a b pair
 -1  = mmaamax ! max invariant mass of gamma gamma pair
 -1  = mmllmax ! max invariant mass of l+l- (same flavour) lepton pair
#*********************************************************************
# Minimum and maximum invariant mass for all letpons                 *
#*********************************************************************
 0   = mmnl    ! min invariant mass for all letpons (l+- and vl) 
 -1  = mmnlmax ! max invariant mass for all letpons (l+- and vl) 
#*********************************************************************
# Minimum and maximum pt for 4-momenta sum of leptons                *
#*********************************************************************
 0   = ptllmin  ! Minimum pt for 4-momenta sum of leptons(l and vl)
 -1  = ptllmax  ! Maximum pt for 4-momenta sum of leptons(l and vl)
#*********************************************************************
# Inclusive cuts                                                     *
#*********************************************************************
 0  = xptj ! minimum pt for at least one jet  
 0  = xptb ! minimum pt for at least one b 
 0  = xpta ! minimum pt for at least one photon 
 0  = xptl ! minimum pt for at least one charged lepton 
#*********************************************************************
# Control the pt's of the jets sorted by pt                          *
#*********************************************************************
 0   = ptj1min ! minimum pt for the leading jet in pt
 0   = ptj2min ! minimum pt for the second jet in pt
 0   = ptj3min ! minimum pt for the third jet in pt
 0   = ptj4min ! minimum pt for the fourth jet in pt
 -1  = ptj1max ! maximum pt for the leading jet in pt 
 -1  = ptj2max ! maximum pt for the second jet in pt
 -1  = ptj3max ! maximum pt for the third jet in pt
 -1  = ptj4max ! maximum pt for the fourth jet in pt
 0   = cutuse  ! reject event if fails any (0) / all (1) jet pt cuts
#*********************************************************************
# Control the pt's of leptons sorted by pt                           *
#*********************************************************************
 0   = ptl1min ! minimum pt for the leading lepton in pt
 0   = ptl2min ! minimum pt for the second lepton in pt
 0   = ptl3min ! minimum pt for the third lepton in pt
 0   = ptl4min ! minimum pt for the fourth lepton in pt
 -1  = ptl1max ! maximum pt for the leading lepton in pt 
 -1  = ptl2max ! maximum pt for the second lepton in pt
 -1  = ptl3max ! maximum pt for the third lepton in pt
 -1  = ptl4max ! maximum pt for the fourth lepton in pt
#*********************************************************************
# Control the Ht(k)=Sum of k leading jets                            *
#*********************************************************************
 0   = htjmin ! minimum jet HT=Sum(jet pt)
 -1  = htjmax ! maximum jet HT=Sum(jet pt)
 0   = ihtmin  !inclusive Ht for all partons (including b)
 -1  = ihtmax  !inclusive Ht for all partons (including b)
 0   = ht2min ! minimum Ht for the two leading jets
 0   = ht3min ! minimum Ht for the three leading jets
 0   = ht4min ! minimum Ht for the four leading jets
 -1  = ht2max ! maximum Ht for the two leading jets
 -1  = ht3max ! maximum Ht for the three leading jets
 -1  = ht4max ! maximum Ht for the four leading jets
#*********************************************************************
# WBF cuts                                                           *
#*********************************************************************
 0   = xetamin ! minimum rapidity for two jets in the WBF case  
 0   = deltaeta ! minimum rapidity for two jets in the WBF case 
#*********************************************************************
# maximal pdg code for quark to be considered as a light jet         *
# (otherwise b cuts are applied)                                     *
#*********************************************************************
 4 = maxjetflavor    ! Maximum jet pdg code
#*********************************************************************
# Jet measure cuts                                                   *
#*********************************************************************
 2.0 = xqcut   ! minimum kt jet measure between partons
#*********************************************************************
 0d0 = kt_durham    ! minimum durham kt jet measure between partons
 0.4 = d_parameter  ! D parameter for hadronic kT
 F   = do_kt_durham        ! T: enable durham kt cut
 15  = pt_pythia    ! minimum pythia pt jet measure between partons
 1   = njets_requested  ! number of jets above the pythia pt cut
 T   = do_pt_pythia        ! T: enable pythia pt cut
#*********************************************************************
</MGRunCard>
<MGGenerationInfo>
#  Number of Events        :        1000
#  Integrated weight (pb)  :  .26047E+04
#  Truncated wgt (pb)      :  .00000E+00
#  Unit wgt                :  .26047E+01
</MGGenerationInfo>
</header>
<init>
     2212     2212  0.35000000000E+04  0.35000000000E+04 0 0 10042 10042 3  2
  0.15649058999E+04  0.10774761934E+02  0.26047000000E+01   1
  0.10268215668E+04  0.70699189845E+01  0.26047000000E+01   2
</init>
<event>
 6   1  0.2604700E+01  0.8040000E+02  0.7957747E-01  0.1297830E+00
       21   -1    0    0  501  502  0.00000000000E+00  0.00000000000E+00  0.18711944392E+03  0.18711944392E+03  0.00000000000E+00 0. -1.
       -1   -1    0    0    0  501  0.00000000000E+00  0.00000000000E+00 -0.18597796174E+02  0.18597796174E+02  0.00000000000E+00 0.  1.
       24    2    1    2    0    0 -0.20149630280E+02 -0.22721590754E+02  0.11830625741E+03  0.14703279826E+03  0.81853496781E+02 0.  0.
      -11    1    3    3    0    0  0.13660694114E+02 -0.44055017310E+02  0.51127680594E+02  0.68858542221E+02  0.00000000000E+00 0.  1.
       12    1    3    3    0    0 -0.33810324394E+02  0.21333426557E+02  0.67178576820E+02  0.78174256043E+02  0.00000000000E+00 0. -1.
       -2    1    1    2    0  502  0.20149630280E+02  0.22721590754E+02  0.50215390335E+02  0.58684441834E+02  0.00000000000E+00 0.  1.
</event>
<event>
 6   2  0.2604700E+01  0.8040000E+02  0.7957747E-01  0.1297830E+00
        1   -1    0    0  502    0  0.00000000000E+00  0.00000000000E+00  0.50157258785E+03  0.50157258785E+03  0.00000000000E+00 0. -1.
       -2   -1    0    0    0  501  0.00000000000E+00  0.00000000000E+00 -0.66687381723E+01  0.66687381723E+01  0.00000000000E+00 0.  1.
      -24    2    1    2    0    0  0.16989567499E+02 -0.17668211931E+02  0.33774446101E+03  0.34918195169E+03  0.85181590302E+02 0.  0.
       11    1    3    3    0    0  0.54421003970E+01 -0.38222586075E+02  0.31157880169E+03  0.31396167315E+03  0.00000000000E+00 0. -1.
      -12    1    3    3    0    0  0.11547467102E+02  0.20554374144E+02  0.26165659319E+02  0.35220278541E+02  0.00000000000E+00 0.  1.
       21    1    1    2  502  501 -0.16989567499E+02  0.17668211931E+02  0.15715938867E+03  0.15905937433E+03  0.00000000000E+00 0.  1.
</event>
<event>
 6   2  0.2604700E+01  0.8040000E+02  0.7957747E-01  0.1297830E+00
        1   -1    0    0  502    0  0.00000000000E+00  0.00000000000E+00  0.13080978435E+04  0.13080978435E+04  0.00000000000E+00 0. -1.
       21   -1    0    0  501  502  0.00000000000E+00  0.00000000000E+00 -0.33287042933E+01  0.33287042933E+01  0.00000000000E+00 0. -1.
      -24    2    1    2    0    0  0.73972896643E+01  0.18381896663E+02  0.12546502743E+04  0.12575329987E+04  0.82760605830E+02 0.  0.
       11    1    3    3    0    0 -0.18978634385E+00 -0.19151634656E+02  0.98408997145E+03  0.98427632961E+03  0.00000000000E+00 0. -1.
      -12    1    3    3    0    0  0.75870760082E+01  0.37533531319E+02  0.27056030286E+03  0.27325666905E+03  0.00000000000E+00 0.  1.
        2    1    1    2  501    0 -0.73972896643E+01 -0.18381896663E+02  0.50118864874E+02  0.53893549109E+02  0.00000000000E+00 0. -1.
</event>
<event>
 6   2  0.2604700E+01  0.8040000E+02  0.7957747E-01  0.1297830E+00
        1   -1    0    0  502    0  0.00000000000E+00  0.00000000000E+00  0.24013555410E+03  0.24013555410E+03  0.00000000000E+00 0. -1.
       21   -1    0    0  501  502  0.00000000000E+00  0.00000000000E+00 -0.11753668044E+02  0.11753668044E+02  0.00000000000E+00 0.  1.
      -24    2    1    2    0    0  0.17049509757E+02 -0.10774621976E+02  0.16520051350E+03  0.18556679683E+03  0.82079523409E+02 0.  0.
       11    1    3    3    0    0 -0.30433597000E+02  0.82561309662E+01  0.82532844833E+02  0.88351785501E+02  0.00000000000E+00 0. -1.
      -12    1    3    3    0    0  0.47483106756E+02 -0.19030752942E+02  0.82667668671E+02  0.97215011332E+02  0.00000000000E+00 0.  1.
        2    1    1    2  501    0 -0.17049509757E+02  0.10774621976E+02  0.63181372549E+02  0.66322425308E+02  0.00000000000E+00 0. -1.
</event>
<event>
 6   1  0.2604700E+01  0.8040000E+02  0.7957747E-01  0.1297830E+00
       -3   -1    0    0    0  501  0.00000000000E+00  0.00000000000E+00  0.69990821677E+02  0.69990821677E+02  0.00000000000E+00 0.  1.
        4   -1    0    0  502    0  0.00000000000E+00  0.00000000000E+00 -0.34481672628E+02  0.34481672628E+02  0.00000000000E+00 0. -1.
       24    2    1    2    0    0 -0.14328544396E+02  0.57018613517E+01  0.32119743419E+02  0.88683052329E+02  0.81210759421E+02 0.  0.
      -11    1    3    3    0    0 -0.25669579119E+02 -0.85616608125E+01  0.53884257676E+02  0.60297118947E+02  0.00000000000E+00 0.  1.
       12    1    3    3    0    0  0.11341034723E+02  0.14263522164E+02 -0.21764514257E+02  0.28385933382E+02  0.00000000000E+00 0. -1.
       21    1    1    2  502  501  0.14328544396E+02 -0.57018613517E+01  0.33894056290E+01  0.15789441976E+02  0.00000000000E+00 0.  1.
</event>
<event>
 6   1  0.2604700E+01  0.8040000E+02  0.7957747E-01  0.1297830E+00
       21   -1    0    0  501  502  0.00000000000E+00  0.00000000000E+00  0.98128962049E+01  0.98128962049E+01  0.00000000000E+00 0.  1.
        2   -1    0    0  502    0  0.00000000000E+00  0.00000000000E+00 -0.10737474277E+04  0.10737474277E+04  0.00000000000E+00 0. -1.
       24    2    1    2    0    0 -0.20265182728E+02 -0.78878866688E+02 -0.44455629128E+03  0.45885082526E+03  0.79254214316E+02 0.  0.
      -11    1    3    3    0    0 -0.16043041007E+02 -0.91975595412E+02 -0.42369586730E+03  0.43386066575E+03  0.00000000000E+00 0.  1.
       12    1    3    3    0    0 -0.42221417211E+01  0.13096728724E+02 -0.20860423983E+02  0.24990159518E+02  0.00000000000E+00 0. -1.
        1    1    1    2  501    0  0.20265182728E+02  0.78878866688E+02 -0.61937824016E+03  0.62470949859E+03  0.00000000000E+00 0. -1.
</event>
<event>
 6   1  0.2604700E+01  0.8040000E+02  0.7957747E-01  0.1297830E+00
       21   -1    0    0  501  502  0.00000000000E+00  0.00000000000E+00  0.12917414194E+02  0.12917414194E+02  0.00000000000E+00 0. -1.
       -1   -1    0    0    0  501  0.00000000000E+00  0.00000000000E+00 -0.24745109320E+03  0.24745109320E+03  0.00000000000E+00 0.  1.
       24    2    1    2    0    0 -0.58168744876E+01 -0.23097485672E+02 -0.20770541054E+03  0.22449252849E+03  0.81780363839E+02 0.  0.
      -11    1    3    3    0    0 -0.15477434263E+02 -0.22690915508E+02 -0.21210037008E+03  0.21387144645E+03  0.00000000000E+00 0.  1.
       12    1    3    3    0    0  0.96605597751E+01 -0.40657016335E+00  0.43949595410E+01  0.10621082046E+02  0.00000000000E+00 0. -1.
       -2    1    1    2    0  502  0.58168744876E+01  0.23097485672E+02 -0.26828268470E+02  0.35875978903E+02  0.00000000000E+00 0.  1.
</event>
<event>
 6   1  0.2604700E+01  0.8040000E+02  0.7957747E-01  0.1297830E+00
       21   -1    0    0  501  502  0.00000000000E+00  0.00000000000E+00  0.27414771373E+03  0.27414771373E+03  0.00000000000E+00 0. -1.
        2   -1    0    0  502    0  0.00000000000E+00  0.00000000000E+00 -0.35825361410E+02  0.35825361410E+02  0.00000000000E+00 0. -1.
       24    2    1    2    0    0 -0.69133714793E+02 -0.44491818647E+02  0.14899330882E+03  0.18857014906E+03  0.81244708116E+02 0.  0.
      -11    1    3    3    0    0 -0.26692522965E+01 -0.47328934252E+02  0.46670081422E+02  0.66522548246E+02  0.00000000000E+00 0.  1.
       12    1    3    3    0    0 -0.66464462496E+02  0.28371156045E+01  0.10232322740E+03  0.12204760082E+03  0.00000000000E+00 0. -1.
        1    1    1    2  501    0  0.69133714793E+02  0.44491818647E+02  0.89329043502E+02  0.12140292608E+03  0.00000000000E+00 0. -1.
</event>
<event>
 6   1  0.2604700E+01  0.8040000E+02  0.7957747E-01  0.1297830E+00
        2   -1    0    0  502    0  0.00000000000E+00  0.00000000000E+00  0.25565885261E+03  0.25565885261E+03  0.00000000000E+00 0. -1.
       -1   -1    0    0    0  501  0.00000000000E+00  0.00000000000E+00 -0.15260684719E+02  0.15260684719E+02  0.00000000000E+00 0.  1.
       24    2    1    2    0    0  0.37367006472E+01  0.15957016783E+02  0.10163338054E+03  0.13119031517E+03  0.81320141652E+02 0.  0.
      -11    1    3    3    0    0 -0.14958494794E+02  0.45489925832E+02  0.55302290532E+02  0.73153491077E+02  0.00000000000E+00 0.  1.
       12    1    3    3    0    0  0.18695195441E+02 -0.29532909050E+02  0.46331090011E+02  0.58036824096E+02  0.00000000000E+00 0. -1.
       21    1    1    2  502  501 -0.37367006472E+01 -0.15957016783E+02  0.13876478735E+03  0.13972922215E+03  0.00000000000E+00 0. -1.
</event>
<event>
 6   2  0.2604700E+01  0.8040000E+02  0.7957747E-01  0.1297830E+00
       -2   -1    0    0    0  501  0.00000000000E+00  0.00000000000E+00  0.67580716461E+01  0.67580716461E+01  0.00000000000E+00 0.  1.
        1   -1    0    0  502    0  0.00000000000E+00  0.00000000000E+00 -0.44933754807E+03  0.44933754807E+03  0.00000000000E+00 0. -1.
      -24    2    1    2    0    0 -0.24807302636E+02  0.15401747371E+02 -0.30108850856E+03  0.31162309612E+03  0.74846830023E+02 0.  0.
       11    1    3    3    0    0 -0.37961929582E+02  0.36600999186E+02 -0.16358014458E+03  0.17186973247E+03  0.00000000000E+00 0. -1.
      -12    1    3    3    0    0  0.13154626946E+02 -0.21199251815E+02 -0.13750836398E+03  0.13975336365E+03  0.00000000000E+00 0.  1.
       21    1    1    2  502  501  0.24807302636E+02 -0.15401747371E+02 -0.14149096786E+03  0.14447252359E+03  0.00000000000E+00 0.  1.
</event>
<event>
 6   1  0.2604700E+01  0.8040000E+02  0.7957747E-01  0.1297830E+00
        2   -1    0    0  502    0  0.00000000000E+00  0.00000000000E+00  0.12256039475E+03  0.12256039475E+03  0.00000000000E+00 0. -1.
       -1   -1    0    0    0  501  0.00000000000E+00  0.00000000000E+00 -0.21411235612E+02  0.21411235612E+02  0.00000000000E+00 0.  1.
       24    2    1    2    0    0 -0.89853333776E+01 -0.14255656536E+02  0.71352399239E+02  0.10973996578E+03  0.81656201566E+02 0.  0.
      -11    1    3    3    0    0 -0.13600733086E+02 -0.30215071261E+02 -0.32649657948E+01  0.33295502300E+02  0.00000000000E+00 0.  1.
       12    1    3    3    0    0  0.46153997085E+01  0.15959414726E+02  0.74617365033E+02  0.76444463484E+02  0.00000000000E+00 0. -1.
       21    1    1    2  502  501  0.89853333776E+01  0.14255656536E+02  0.29796759895E+02  0.34231664573E+02  0.00000000000E+00 0. -1.
</event>
<event>
 6   1  0.2604700E+01  0.8040000E+02  0.7957747E-01  0.1297830E+00
       -3   -1    0    0    0  501  0.00000000000E+00  0.00000000000E+00  0.13189999028E+03  0.13189999028E+03  0.00000000000E+00 0.  1.
        4   -1    0    0  502    0  0.00000000000E+00  0.00000000000E+00 -0.20110972520E+02  0.20110972520E+02  0.00000000000E+00 0. -1.
       24    2    1    2    0    0  0.21190815157E+01 -0.18484667901E+02  0.81121184190E+02  0.11614050880E+03  0.81004924586E+02 0.  0.
      -11    1    3    3    0    0  0.50695998659E+01 -0.44423831789E+02  0.77921939708E+02  0.89838779831E+02  0.00000000000E+00 0.  1.
       12    1    3    3    0    0 -0.29505183503E+01  0.25939163889E+02  0.31992444817E+01  0.26301728974E+02  0.00000000000E+00 0. -1.
       21    1    1    2  502  501 -0.21190815157E+01  0.18484667901E+02  0.30667833566E+02  0.35870453991E+02  0.00000000000E+00 0.  1.
</event>
<event>
 6   2  0.2604700E+01  0.8040000E+02  0.7957747E-01  0.1297830E+00
        1   -1    0    0  502    0  0.00000000000E+00  0.00000000000E+00  0.21724126361E+03  0.21724126361E+03  0.00000000000E+00 0. -1.
       21   -1    0    0  501  502  0.00000000000E+00  0.00000000000E+00 -0.21090742780E+02  0.21090742780E+02  0.00000000000E+00 0.  1.
      -24    2    1    2    0    0  0.39868665433E+02  0.98857779297E+01  0.10137767387E+03  0.13504051782E+03  0.79191348056E+02 0.  0.
       11    1    3    3    0    0  0.64731577559E+01  0.20697107238E+01  0.10050185380E+03  0.10073136598E+03  0.00000000000E+00 0. -1.
      -12    1    3    3    0    0  0.33395507677E+02  0.78160672059E+01  0.87582006230E+00  0.34309151845E+02  0.00000000000E+00 0.  1.
        2    1    1    2  501    0 -0.39868665433E+02 -0.98857779297E+01  0.94772846962E+02  0.10329148857E+03  0.00000000000E+00 0. -1.
</event>
<event>
 6   1  0.2604700E+01  0.8040000E+02  0.7957747E-01  0.1297830E+00
       -1   -1    0    0    0  501  0.00000000000E+00  0.00000000000E+00  0.14455436628E+02  0.14455436628E+02  0.00000000000E+00 0.  1.
        2   -1    0    0  502    0  0.00000000000E+00  0.00000000000E+00 -0.58557880870E+03  0.58557880870E+03  0.00000000000E+00 0. -1.
       24    2    1    2    0    0 -0.45438068499E+02  0.37347543038E+02 -0.48980098367E+03  0.49967096571E+03  0.79414188484E+02 0.  0.
      -11    1    3    3    0    0 -0.51108710004E+02  0.17693931803E+02 -0.15352028113E+03  0.16276870762E+03  0.00000000000E+00 0.  1.
       12    1    3    3    0    0  0.56706415053E+01  0.19653611236E+02 -0.33628070254E+03  0.33690225809E+03  0.00000000000E+00 0. -1.
       21    1    1    2  502  501  0.45438068499E+02 -0.37347543038E+02 -0.81322388408E+02  0.10036327962E+03  0.00000000000E+00 0.  1.
</event>
<event>
 6   1  0.2604700E+01  0.8040000E+02  0.7957747E-01  0.1297830E+00
        2   -1    0    0  502    0  0.00000000000E+00  0.00000000000E+00  0.44303033160E+03  0.44303033160E+03  0.00000000000E+00 0. -1.
       21   -1    0    0  501  502  0.00000000000E+00  0.00000000000E+00 -0.10537933726E+02  0.10537933726E+02  0.00000000000E+00 0. -1.
       24    2    1    2    0    0  0.26121726822E+02 -0.32953716025E+01  0.41098037866E+03  0.41956869096E+03  0.80248431196E+02 0.  0.
      -11    1    3    3    0    0 -0.14596668774E+02  0.25463643073E+02  0.88044190768E+02  0.92807539488E+02  0.00000000000E+00 0.  1.
       12    1    3    3    0    0  0.40718395596E+02 -0.28759014676E+02  0.32293618789E+03  0.32676115147E+03  0.00000000000E+00 0. -1.
        1    1    1    2  501    0 -0.26121726822E+02  0.32953716025E+01  0.21512019222E+02  0.33999574368E+02  0.00000000000E+00 0. -1.
</event>
<event>
 6   1  0.2604700E+01  0.8040000E+02  0.7957747E-01  0.1297830E+00
       21   -1    0    0  501  502  0.00000000000E+00  0.00000000000E+00  0.47757625274E+02  0.47757625274E+02  0.00000000000E+00 0.  1.
        2   -1    0    0  502    0  0.00000000000E+00  0.00000000000E+00 -0.59975113593E+02  0.59975113593E+02  0.00000000000E+00 0. -1.
       24    2    1    2    0    0 -0.83232499862E+01 -0.11027771985E+02  0.31610016823E+01  0.87059417894E+02  0.85897974756E+02 0.  0.
      -11    1    3    3    0    0  0.22712838134E+01 -0.28038343234E+02  0.37753632852E+02  0.47081251205E+02  0.00000000000E+00 0.  1.
       12    1    3    3    0    0 -0.10594533800E+02  0.17010571249E+02 -0.34592631170E+02  0.39978166690E+02  0.00000000000E+00 0. -1.
        1    1    1    2  501    0  0.83232499862E+01  0.11027771985E+02 -0.15378490001E+02  0.20673320972E+02  0.00000000000E+00 0. -1.
</event>
<event>
 6   1  0.2604700E+01  0.8040000E+02  0.7957747E-01  0.1297830E+00
       21   -1    0    0  501  502  0.00000000000E+00  0.00000000000E+00  0.36786868800E+02  0.36786868800E+02  0.00000000000E+00 0.  1.
       -1   -1    0    0    0  501  0.00000000000E+00  0.00000000000E+00 -0.33167811894E+03  0.33167811894E+03  0.00000000000E+00 0.  1.
       24    2    1    2    0    0  0.14472473570E+02 -0.10496167533E+02 -0.32379455805E+03  0.33447935501E+03  0.81938398120E+02 0.  0.
      -11    1    3    3    0    0  0.20477418396E+02 -0.41669440005E+02 -0.24793699426E+03  0.25224674431E+03  0.00000000000E+00 0.  1.
       12    1    3    3    0    0 -0.60049448258E+01  0.31173272472E+02 -0.75857563789E+02  0.82232610703E+02  0.00000000000E+00 0. -1.
       -2    1    1    2    0  502 -0.14472473570E+02  0.10496167533E+02  0.28903307904E+02  0.33985632727E+02  0.00000000000E+00 0.  1.
</event>
<event>
 6   1  0.2604700E+01  0.8040000E+02  0.7957747E-01  0.1297830E+00
        2   -1    0    0  502    0  0.00000000000E+00  0.00000000000E+00  0.19447292733E+03  0.19447292733E+03  0.00000000000E+00 0. -1.
       -1   -1    0    0    0  501  0.00000000000E+00  0.00000000000E+00 -0.13905335539E+02  0.13905335539E+02  0.00000000000E+00 0.  1.
       24    2    1    2    0    0 -0.18331704694E+02 -0.87497438973E+01  0.12830812049E+03  0.15230989606E+03  0.79515540875E+02 0.  0.
      -11    1    3    3    0    0 -0.14017857296E+02  0.40035746422E+01 -0.71130700705E+01  0.16221118917E+02  0.00000000000E+00 0.  1.
       12    1    3    3    0    0 -0.43138473982E+01 -0.12753318540E+02  0.13542119056E+03  0.13608877715E+03  0.00000000000E+00 0. -1.
       21    1    1    2  502  501  0.18331704694E+02  0.87497438973E+01  0.52259471300E+02  0.56068366802E+02  0.00000000000E+00 0.  1.
</event>
<event>
 6   1  0.2604700E+01  0.8040000E+02  0.7957747E-01  0.1297830E+00
       21   -1    0    0  501  502  0.00000000000E+00  0.00000000000E+00  0.26683502447E+02  0.26683502447E+02  0.00000000000E+00 0.  1.
       -1   -1    0    0    0  501  0.00000000000E+00  0.00000000000E+00 -0.11806368541E+03  0.11806368541E+03  0.00000000000E+00 0.  1.
       24    2    1    2    0    0  0.17356539542E+02  0.14533662502E+02 -0.48174616338E+02  0.95970166648E+02  0.79856135748E+02 0.  0.
      -11    1    3    3    0    0  0.14047146961E+02 -0.26851467021E+02 -0.45105099154E+02  0.54339613438E+02  0.00000000000E+00 0.  1.
       12    1    3    3    0    0  0.33093925810E+01  0.41385129523E+02 -0.30695171841E+01  0.41630553211E+02  0.00000000000E+00 0. -1.
       -2    1    1    2    0  502 -0.17356539542E+02 -0.14533662502E+02 -0.43205566626E+02  0.48777021209E+02  0.00000000000E+00 0.  1.
</event>
<event>
 6   1  0.2604700E+01  0.8040000E+02  0.7957747E-01  0.1297830E+00
       -1   -1    0    0    0  501  0.00000000000E+00  0.00000000000E+00  0.42465343910E+01  0.42465343910E+01  0.00000000000E+00 0.  1.
        2   -1    0    0  502    0  0.00000000000E+00  0.00000000000E+00 -0.53127192029E+03  0.53127192029E+03  0.00000000000E+00 0. -1.
       24    2    1    2    0    0 -0.11234009142E+02 -0.29639110786E+01 -0.46451256166E+03  0.47193511627E+03  0.82558138849E+02 0.  0.
      -11    1    3    3    0    0 -0.44026989250E+02  0.12621350247E+02 -0.21764508735E+03  0.22241191136E+03  0.00000000000E+00 0.  1.
       12    1    3    3    0    0  0.32792980108E+02 -0.15585261326E+02 -0.24686747431E+03  0.24952320491E+03  0.00000000000E+00 0. -1.
       21    1    1    2  502  501  0.11234009142E+02  0.29639110786E+01 -0.62512824237E+02  0.63583338418E+02  0.00000000000E+00 0. -1.
</event>
<event>
 6   2  0.2604700E+01  0.8040000E+02  0.7957747E-01  0.1297830E+00
       -4   -1    0    0    0  501  0.00000000000E+00  0.00000000000E+00  0.19414032938E+03  0.19414032938E+03  0.00000000000E+00 0.  1.
        3   -1    0    0  502    0  0.00000000000E+00  0.00000000000E+00 -0.27757950863E+02  0.27757950863E+02  0.00000000000E+00 0. -1.
      -24    2    1    2    0    0 -0.18795381300E+02 -0.25794498617E+02  0.16899754606E+03  0.18987545059E+03  0.80460509868E+02 0.  0.
       11    1    3    3    0    0 -0.31395378898E+02 -0.18775065120E+01  0.17514751960E+02  0.35999463650E+02  0.00000000000E+00 0. -1.
      -12    1    3    3    0    0  0.12599997599E+02 -0.23916992105E+02  0.15148279410E+03  0.15387598694E+03  0.00000000000E+00 0.  1.
       21    1    1    2  502  501  0.18795381300E+02  0.25794498617E+02 -0.26151675435E+01  0.32022829644E+02  0.00000000000E+00 0. -1.
</event>
<event>
 6   1  0.2604700E+01  0.8040000E+02  0.7957747E-01  0.1297830E+00
        2   -1    0    0  502    0  0.00000000000E+00  0.00000000000E+00  0.15733460855E+04  0.15733460855E+04  0.00000000000E+00 0. -1.
       21   -1    0    0  501  502  0.00000000000E+00  0.00000000000E+00 -0.31543791878E+01  0.31543791878E+01  0.00000000000E+00 0.  1.
       24    2    1    2    0    0 -0.11242880918E+02 -0.22112849104E+02  0.14943743295E+04  0.14967279438E+04  0.80153106808E+02 0.  0.
      -11    1    3    3    0    0 -0.24411316272E+00 -0.47722455330E+02  0.59097200998E+03  0.59289578251E+03  0.00000000000E+00 0.  1.
       12    1    3    3    0    0 -0.10998767756E+02  0.25609606225E+02  0.90340231954E+03  0.90383216128E+03  0.00000000000E+00 0. -1.
        1    1    1    2  501    0  0.11242880918E+02  0.22112849104E+02  0.75817376837E+02  0.79772520941E+02  0.00000000000E+00 0. -1.
</event>
<event>
 6   2  0.2604700E+01  0.8040000E+02  0.7957747E-01  0.1297830E+00
       21   -1    0    0  501  502  0.00000000000E+00  0.00000000000E+00  0.39090936799E+02  0.39090936799E+02  0.00000000000E+00 0. -1.
        1   -1    0    0  502    0  0.00000000000E+00  0.00000000000E+00 -0.11442918639E+04  0.11442918639E+04  0.00000000000E+00 0. -1.
      -24    2    1    2    0    0  0.17834873544E+02 -0.22297365491E+02 -0.11372418891E+04  0.11404656890E+04  0.80793677128E+02 0.  0.
       11    1    3    3    0    0  0.19202834653E+02  0.27425112426E+02 -0.59726743989E+03  0.59820504879E+03  0.00000000000E+00 0. -1.
      -12    1    3    3    0    0 -0.13679611089E+01 -0.49722477917E+02 -0.53997444923E+03  0.54226064024E+03  0.00000000000E+00 0.  1.
        2    1    1    2  501    0 -0.17834873544E+02  0.22297365491E+02  0.32040962050E+02  0.42917111637E+02  0.00000000000E+00 0. -1.
</event>
<event>
 6   1  0.2604700E+01  0.8040000E+02  0.7957747E-01  0.1297830E+00
        2   -1    0    0  502    0  0.00000000000E+00  0.00000000000E+00  0.19938166181E+03  0.19938166181E+03  0.00000000000E+00 0. -1.
       -1   -1    0    0    0  501  0.00000000000E+00  0.00000000000E+00 -0.21130674779E+02  0.21130674779E+02  0.00000000000E+00 0.  1.
       24    2    1    2    0    0  0.20646440214E+02 -0.17048835235E+02  0.17363941950E+03  0.19334241146E+03  0.80707507637E+02 0.  0.
      -11    1    3    3    0    0 -0.59775410697E+01  0.27870164387E+02  0.34646618963E+02  0.44864967021E+02  0.00000000000E+00 0.  1.
       12    1    3    3    0    0  0.26623981284E+02 -0.44918999622E+02  0.13899280053E+03  0.14847744444E+03  0.00000000000E+00 0. -1.
       21    1    1    2  502  501 -0.20646440214E+02  0.17048835235E+02  0.46115675314E+01  0.27169925128E+02  0.00000000000E+00 0.  1.
</event>
<event>
 6   1  0.2604700E+01  0.8040000E+02  0.7957747E-01  0.1297830E+00
       21   -1    0    0  501  502  0.00000000000E+00  0.00000000000E+00  0.14072911334E+02  0.14072911334E+02  0.00000000000E+00 0.  1.
       -1   -1    0    0    0  501  0.00000000000E+00  0.00000000000E+00 -0.19122650525E+03  0.19122650525E+03  0.00000000000E+00 0.  1.
       24    2    1    2    0    0 -0.17727166178E+02  0.87999774516E+01 -0.14831840102E+03  0.17032570684E+03  0.81368337243E+02 0.  0.
      -11    1    3    3    0    0 -0.25706401298E+02  0.13659741283E+02 -0.86823690130E+01  0.30377477368E+02  0.00000000000E+00 0.  1.
       12    1    3    3    0    0  0.79792351193E+01 -0.48597638316E+01 -0.13963603201E+03  0.13994822947E+03  0.00000000000E+00 0. -1.
       -2    1    1    2    0  502  0.17727166178E+02 -0.87999774516E+01 -0.28835192897E+02  0.34973709744E+02  0.00000000000E+00 0.  1.
</event>
<event>
 6   1  0.2604700E+01  0.8040000E+02  0.7957747E-01  0.1297830E+00
        2   -1    0    0  502    0  0.00000000000E+00  0.00000000000E+00  0.69145818445E+03  0.69145818445E+03  0.00000000000E+00 0. -1.
       21   -1    0    0  501  502  0.00000000000E+00  0.00000000000E+00 -0.40536745484E+02  0.40536745484E+02  0.00000000000E+00 0. -1.
       24    2    1    2    0    0 -0.94947046419E+02 -0.12152492595E+03  0.26698387243E+03  0.31824222089E+03  0.78831933646E+02 0.  0.
      -11    1    3    3    0    0 -0.39232399592E+00 -0.42927759024E+02  0.33842882368E+02  0.54665227521E+02  0.00000000000E+00 0.  1.
       12    1    3    3    0    0 -0.94554722423E+02 -0.78597166928E+02  0.23314099007E+03  0.26357699336E+03  0.00000000000E+00 0. -1.
        1    1    1    2  501    0  0.94947046419E+02  0.12152492595E+03  0.38393756653E+03  0.41375270905E+03  0.00000000000E+00 0. -1.
</event>
<event>
 6   1  0.2604700E+01  0.8040000E+02  0.7957747E-01  0.1297830E+00
        2   -1    0    0  502    0  0.00000000000E+00  0.00000000000E+00  0.57152516101E+02  0.57152516101E+02  0.00000000000E+00 0. -1.
       -1   -1    0    0    0  501  0.00000000000E+00  0.00000000000E+00 -0.45668862418E+02  0.45668862418E+02  0.00000000000E+00 0.  1.
       24    2    1    2    0    0 -0.14405771830E+02  0.27242711119E+01 -0.53040343197E+01  0.80532942424E+02  0.79009329324E+02 0.  0.
      -11    1    3    3    0    0 -0.40517162708E+01 -0.23672502806E+02 -0.33054414536E+02  0.40858268614E+02  0.00000000000E+00 0.  1.
       12    1    3    3    0    0 -0.10354055559E+02  0.26396773917E+02  0.27750380216E+02  0.39674673810E+02  0.00000000000E+00 0. -1.
       21    1    1    2  502  501  0.14405771830E+02 -0.27242711119E+01  0.16787688002E+02  0.22288436095E+02  0.00000000000E+00 0.  1.
</event>
<event>
 6   1  0.2604700E+01  0.8040000E+02  0.7957747E-01  0.1297830E+00
       21   -1    0    0  501  502  0.00000000000E+00  0.00000000000E+00  0.18066257799E+03  0.18066257799E+03  0.00000000000E+00 0. -1.
        2   -1    0    0  502    0  0.00000000000E+00  0.00000000000E+00 -0.30970939886E+02  0.30970939886E+02  0.00000000000E+00 0. -1.
       24    2    1    2    0    0 -0.12386320405E+02  0.41332224180E+02  0.52723514018E+02  0.10549874140E+03  0.80550864786E+02 0.  0.
      -11    1    3    3    0    0  0.21537508019E+02 -0.13370773611E+02  0.24363777342E+02  0.35160140571E+02  0.00000000000E+00 0.  1.
       12    1    3    3    0    0 -0.33923828424E+02  0.54702997790E+02  0.28359736676E+02  0.70338600829E+02  0.00000000000E+00 0. -1.
        1    1    1    2  501    0  0.12386320405E+02 -0.41332224180E+02  0.96968124091E+02  0.10613477648E+03  0.00000000000E+00 0. -1.
</event>
<event>
 6   2  0.2604700E+01  0.8040000E+02  0.7957747E-01  0.1297830E+00
       -2   -1    0    0    0  501  0.00000000000E+00  0.00000000000E+00  0.10441189550E+03  0.10441189550E+03  0.00000000000E+00 0.  1.
       21   -1    0    0  501  502  0.00000000000E+00  0.00000000000E+00 -0.22961460018E+02  0.22961460018E+02  0.00000000000E+00 0. -1.
      -24    2    1    2    0    0  0.13705183367E+02  0.67891076705E+01  0.61021828717E+02  0.10185371586E+03  0.80103631753E+02 0.  0.
       11    1    3    3    0    0  0.15282395446E+01  0.11633444706E+02 -0.18145727376E+02  0.21608793901E+02  0.00000000000E+00 0. -1.
      -12    1    3    3    0    0  0.12176943823E+02 -0.48443370352E+01  0.79167556093E+02  0.80244921957E+02  0.00000000000E+00 0.  1.
       -1    1    1    2    0  502 -0.13705183367E+02 -0.67891076705E+01  0.20428606767E+02  0.25519639663E+02  0.00000000000E+00 0.  1.
</event>
<event>
 6   2  0.2604700E+01  0.8040000E+02  0.7957747E-01  0.1297830E+00
       21   -1    0    0  501  502  0.00000000000E+00  0.00000000000E+00  0.11267248152E+02  0.11267248152E+02  0.00000000000E+00 0.  1.
       -2   -1    0    0    0  501  0.00000000000E+00  0.00000000000E+00 -0.50921819145E+03  0.50921819145E+03  0.00000000000E+00 0.  1.
      -24    2    1    2    0    0 -0.12437675879E+02  0.23431203523E+02 -0.48206167298E+03  0.48956318239E+03  0.81147618072E+02 0.  0.
       11    1    3    3    0    0 -0.96291704524E+01 -0.25250341159E+02 -0.77563853590E+02  0.82136788566E+02  0.00000000000E+00 0. -1.
      -12    1    3    3    0    0 -0.28085054265E+01  0.48681544682E+02 -0.40449781939E+03  0.40742639382E+03  0.00000000000E+00 0.  1.
       -1    1    1    2    0  502  0.12437675879E+02 -0.23431203523E+02 -0.15889270321E+02  0.30922257213E+02  0.00000000000E+00 0.  1.
</event>
<event>
 6   2  0.2604700E+01  0.8040000E+02  0.7957747E-01  0.1297830E+00
       21   -1    0    0  501  502  0.00000000000E+00  0.00000000000E+00  0.81661176139E+02  0.81661176139E+02  0.00000000000E+00 0. -1.
        3   -1    0    0  502    0  0.00000000000E+00  0.00000000000E+00 -0.53636914832E+02  0.53636914832E+02  0.00000000000E+00 0. -1.
      -24    2    1    2    0    0  0.36714696739E+02 -0.11707165432E+02 -0.11798548588E+01  0.86946182218E+02  0.77930865937E+02 0.  0.
       11    1    3    3    0    0  0.39820689759E+02 -0.20851955601E+01 -0.34125384471E+02  0.52484066522E+02  0.00000000000E+00 0. -1.
      -12    1    3    3    0    0 -0.31059930200E+01 -0.96219698715E+01  0.32945529612E+02  0.34462115696E+02  0.00000000000E+00 0.  1.
        4    1    1    2  501    0 -0.36714696739E+02  0.11707165432E+02  0.29204116165E+02  0.48351908753E+02  0.00000000000E+00 0. -1.
</event>
<event>
 6   2  0.2604700E+01  0.8040000E+02  0.7957747E-01  0.1297830E+00
       -4   -1    0    0    0  501  0.00000000000E+00  0.00000000000E+00  0.76267176758E+03  0.76267176758E+03  0.00000000000E+00 0.  1.
       21   -1    0    0  501  502  0.00000000000E+00  0.00000000000E+00 -0.11350672809E+02  0.11350672809E+02  0.00000000000E+00 0. -1.
      -24    2    1    2    0    0 -0.24897599677E+01  0.21144042860E+02  0.13294752785E+03  0.15528248070E+03  0.77358478506E+02 0.  0.
       11    1    3    3    0    0  0.24612651720E+02 -0.52230426141E+01  0.10736793558E+02  0.27355831823E+02  0.00000000000E+00 0. -1.
      -12    1    3    3    0    0 -0.27102411688E+02  0.26367085474E+02  0.12221073430E+03  0.12792664888E+03  0.00000000000E+00 0.  1.
       -3    1    1    2    0  502  0.24897599677E+01 -0.21144042860E+02  0.61837356692E+03  0.61873995969E+03  0.00000000000E+00 0.  1.
</event>
<event>
 6   1  0.2604700E+01  0.8040000E+02  0.7957747E-01  0.1297830E+00
        2   -1    0    0  502    0  0.00000000000E+00  0.00000000000E+00  0.36764443898E+03  0.36764443898E+03  0.00000000000E+00 0. -1.
       -1   -1    0    0    0  501  0.00000000000E+00  0.00000000000E+00 -0.10061273778E+02  0.10061273778E+02  0.00000000000E+00 0.  1.
       24    2    1    2    0    0  0.18437347863E+01  0.21308160794E+02  0.17775516582E+03  0.19661030576E+03  0.81248238629E+02 0.  0.
      -11    1    3    3    0    0 -0.30437228667E+02  0.22261928571E+02  0.39407600065E+02  0.54543352441E+02  0.00000000000E+00 0.  1.
       12    1    3    3    0    0  0.32280963454E+02 -0.95376777730E+00  0.13834756576E+03  0.14206695332E+03  0.00000000000E+00 0. -1.
       21    1    1    2  502  501 -0.18437347863E+01 -0.21308160794E+02  0.17982799938E+03  0.18109540700E+03  0.00000000000E+00 0. -1.
</event>
<event>
 6   2  0.2604700E+01  0.8040000E+02  0.7957747E-01  0.1297830E+00
       21   -1    0    0  501  502  0.00000000000E+00  0.00000000000E+00  0.35033683872E+02  0.35033683872E+02  0.00000000000E+00 0.  1.
        1   -1    0    0  502    0  0.00000000000E+00  0.00000000000E+00 -0.99134297494E+02  0.99134297494E+02  0.00000000000E+00 0. -1.
      -24    2    1    2    0    0 -0.23183287110E+02 -0.64588056947E+01 -0.20282978403E+02  0.84176320778E+02  0.78070947186E+02 0.  0.
       11    1    3    3    0    0  0.27213467626E+02  0.90344749027E+01 -0.10597243012E+02  0.30569529215E+02  0.00000000000E+00 0. -1.
      -12    1    3    3    0    0 -0.50396754736E+02 -0.15493280597E+02 -0.96857353909E+01  0.53606791563E+02  0.00000000000E+00 0.  1.
        2    1    1    2  501    0  0.23183287110E+02  0.64588056947E+01 -0.43817635219E+02  0.49991660589E+02  0.00000000000E+00 0. -1.
</event>
<event>
 6   1  0.2604700E+01  0.8040000E+02  0.7957747E-01  0.1297830E+00
        2   -1    0    0  502    0  0.00000000000E+00  0.00000000000E+00  0.10162953262E+04  0.10162953262E+04  0.00000000000E+00 0. -1.
       -1   -1    0    0    0  501  0.00000000000E+00  0.00000000000E+00 -0.61202311397E+01  0.61202311397E+01  0.00000000000E+00 0.  1.
       24    2    1    2    0    0 -0.11843199102E+02 -0.29137125600E+02  0.35375513383E+03  0.36524252156E+03  0.85265300046E+02 0.  0.
      -11    1    3    3    0    0 -0.43118288214E+02 -0.32040838897E+02  0.15556925170E+03  0.16458309212E+03  0.00000000000E+00 0.  1.
       12    1    3    3    0    0  0.31275089112E+02  0.29037132970E+01  0.19818588213E+03  0.20065942944E+03  0.00000000000E+00 0. -1.
       21    1    1    2  502  501  0.11843199102E+02  0.29137125600E+02  0.65641996122E+03  0.65717303577E+03  0.00000000000E+00 0. -1.
</event>
<event>
 6   2  0.2604700E+01  0.8040000E+02  0.7957747E-01  0.1297830E+00
        1   -1    0    0  502    0  0.00000000000E+00  0.00000000000E+00  0.60784783968E+03  0.60784783968E+03  0.00000000000E+00 0. -1.
       21   -1    0    0  501  502  0.00000000000E+00  0.00000000000E+00 -0.47916531968E+01  0.47916531968E+01  0.00000000000E+00 0.  1.
      -24    2    1    2    0    0  0.17113724412E+02  0.37360206315E+01  0.43546720917E+03  0.44413755600E+03  0.85554900365E+02 0.  0.
       11    1    3    3    0    0  0.45672684158E+02  0.14079937434E+02  0.35363381955E+03  0.35684887143E+03  0.00000000000E+00 0. -1.
      -12    1    3    3    0    0 -0.28558959746E+02 -0.10343916803E+02  0.81833389626E+02  0.87288684572E+02  0.00000000000E+00 0.  1.
        2    1    1    2  501    0 -0.17113724412E+02 -0.37360206315E+01  0.16758897732E+03  0.16850193688E+03  0.00000000000E+00 0. -1.
</event>
<event>
 6   1  0.2604700E+01  0.8040000E+02  0.7957747E-01  0.1297830E+00
        2   -1    0    0  502    0  0.00000000000E+00  0.00000000000E+00  0.57942805571E+03  0.57942805571E+03  0.00000000000E+00 0. -1.
       21   -1    0    0  501  502  0.00000000000E+00  0.00000000000E+00 -0.81638903924E+01  0.81638903924E+01  0.00000000000E+00 0.  1.
       24    2    1    2    0    0  0.31552322003E+02 -0.15524065103E+02  0.24108132464E+03  0.25554186871E+03  0.77103151366E+02 0.  0.
      -11    1    3    3    0    0 -0.45857084281E+01 -0.15419712119E+02  0.51976000573E+01  0.16905954276E+02  0.00000000000E+00 0.  1.
       12    1    3    3    0    0  0.36138030431E+02 -0.10435298393E+00  0.23588372459E+03  0.23863591443E+03  0.00000000000E+00 0. -1.
        1    1    1    2  501    0 -0.31552322003E+02  0.15524065103E+02  0.33018284067E+03  0.33205007739E+03  0.00000000000E+00 0. -1.
</event>
<event>
 6   1  0.2604700E+01  0.8040000E+02  0.7957747E-01  0.1297830E+00
       -1   -1    0    0    0  501  0.00000000000E+00  0.00000000000E+00  0.19372905338E+02  0.19372905338E+02  0.00000000000E+00 0.  1.
       21   -1    0    0  501  502  0.00000000000E+00  0.00000000000E+00 -0.18135996790E+03  0.18135996790E+03  0.00000000000E+00 0. -1.
       24    2    1    2    0    0  0.41209583018E+01  0.16552468422E+02 -0.68742094144E+02  0.10594051783E+03  0.78784207192E+02 0.  0.
      -11    1    3    3    0    0  0.28292147083E+02  0.37762506195E+02 -0.31488207464E+02  0.56727062941E+02  0.00000000000E+00 0.  1.
       12    1    3    3    0    0 -0.24171188781E+02 -0.21210037772E+02 -0.37253886681E+02  0.49213454890E+02  0.00000000000E+00 0. -1.
       -2    1    1    2    0  502 -0.41209583018E+01 -0.16552468422E+02 -0.93244968423E+02  0.94792355411E+02  0.00000000000E+00 0.  1.
</event>
<event>
 6   1  0.2604700E+01  0.8040000E+02  0.7957747E-01  0.1297830E+00
        2   -1    0    0  502    0  0.00000000000E+00  0.00000000000E+00  0.61678322691E+03  0.61678322691E+03  0.00000000000E+00 0. -1.
       21   -1    0    0  501  502  0.00000000000E+00  0.00000000000E+00 -0.65010643658E+01  0.65010643658E+01  0.00000000000E+00 0.  1.
       24    2    1    2    0    0  0.14111279697E+02 -0.67937799032E+01  0.59815436449E+03  0.60347603175E+03  0.78418068514E+02 0.  0.
      -11    1    3    3    0    0 -0.13270884480E+01 -0.39662285836E+02  0.40485044570E+03  0.40679078340E+03  0.00000000000E+00 0.  1.
       12    1    3    3    0    0  0.15438368145E+02  0.32868505933E+02  0.19330391880E+03  0.19668524834E+03  0.00000000000E+00 0. -1.
        1    1    1    2  501    0 -0.14111279697E+02  0.67937799032E+01  0.12127798053E+02  0.19808259532E+02  0.00000000000E+00 0. -1.
</event>
<event>
 6   1  0.2604700E+01  0.8040000E+02  0.7957747E-01  0.1297830E+00
       21   -1    0    0  501  502  0.00000000000E+00  0.00000000000E+00  0.20786495516E+02  0.20786495516E+02  0.00000000000E+00 0. -1.
       -3   -1    0    0    0  501  0.00000000000E+00  0.00000000000E+00 -0.18866240748E+03  0.18866240748E+03  0.00000000000E+00 0.  1.
       24    2    1    2    0    0  0.17499521622E+02  0.15149265666E+02 -0.74025541680E+02  0.11278647229E+03  0.81885737488E+02 0.  0.
      -11    1    3    3    0    0 -0.46219463738E+01  0.18748396604E+02 -0.85467991980E+02  0.87622157109E+02  0.00000000000E+00 0.  1.
       12    1    3    3    0    0  0.22121467996E+02 -0.35991309376E+01  0.11442450299E+02  0.25164315183E+02  0.00000000000E+00 0. -1.
       -4    1    1    2    0  502 -0.17499521622E+02 -0.15149265666E+02 -0.93850370281E+02  0.96662430701E+02  0.00000000000E+00 0.  1.
</event>
<event>
 6   2  0.2604700E+01  0.8040000E+02  0.7957747E-01  0.1297830E+00
       21   -1    0    0  501  502  0.00000000000E+00  0.00000000000E+00  0.25389885063E+01  0.25389885063E+01  0.00000000000E+00 0.  1.
       -4   -1    0    0    0  501  0.00000000000E+00  0.00000000000E+00 -0.13075836307E+04  0.13075836307E+04  0.00000000000E+00 0.  1.
      -24    2    1    2    0    0  0.13235239812E+01 -0.23168139210E+02 -0.78295114024E+03  0.78751364572E+03  0.81404789759E+02 0.  0.
       11    1    3    3    0    0  0.39567305263E+02 -0.24093753949E+02 -0.41317561199E+03  0.41576455714E+03  0.00000000000E+00 0. -1.
      -12    1    3    3    0    0 -0.38243781282E+02  0.92561473914E+00 -0.36977552825E+03  0.37174908858E+03  0.00000000000E+00 0.  1.
       -3    1    1    2    0  502 -0.13235239812E+01  0.23168139210E+02 -0.52209350190E+03  0.52260897344E+03  0.00000000000E+00 0.  1.
</event>
<event>
 6   2  0.2604700E+01  0.8040000E+02  0.7957747E-01  0.1297830E+00
        1   -1    0    0  502    0  0.00000000000E+00  0.00000000000E+00  0.12103838222E+03  0.12103838222E+03  0.00000000000E+00 0. -1.
       21   -1    0    0  501  502  0.00000000000E+00  0.00000000000E+00 -0.55498446591E+02  0.55498446591E+02  0.00000000000E+00 0. -1.
      -24    2    1    2    0    0 -0.40845200463E+01 -0.16916581945E+02 -0.22211973641E+02  0.87075934396E+02  0.82377135962E+02 0.  0.
       11    1    3    3    0    0  0.21561634539E+01  0.32181778667E+02 -0.19099556124E+02  0.37484783088E+02  0.00000000000E+00 0. -1.
      -12    1    3    3    0    0 -0.62406835002E+01 -0.49098360612E+02 -0.31124175178E+01  0.49591151309E+02  0.00000000000E+00 0.  1.
        2    1    1    2  501    0  0.40845200463E+01  0.16916581945E+02  0.87751909276E+02  0.89460894419E+02  0.00000000000E+00 0. -1.
</event>
<event>
 6   1  0.2604700E+01  0.8040000E+02  0.7957747E-01  0.1297830E+00
        2   -1    0    0  502    0  0.00000000000E+00  0.00000000000E+00  0.60510439724E+03  0.60510439724E+03  0.00000000000E+00 0. -1.
       21   -1    0    0  501  502  0.00000000000E+00  0.00000000000E+00 -0.15913033548E+02  0.15913033548E+02  0.00000000000E+00 0. -1.
       24    2    1    2    0    0  0.72947258391E+02  0.38375093866E+02  0.34484195151E+03  0.36314035625E+03  0.78492015413E+02 0.  0.
      -11    1    3    3    0    0 -0.23537139135E+01  0.14466331400E+02  0.71089926780E+01  0.16289643651E+02  0.00000000000E+00 0.  1.
       12    1    3    3    0    0  0.75300972304E+02  0.23908762466E+02  0.33773295883E+03  0.34685071260E+03  0.00000000000E+00 0. -1.
        1    1    1    2  501    0 -0.72947258391E+02 -0.38375093866E+02  0.24434941218E+03  0.25787707453E+03  0.00000000000E+00 0. -1.
</event>
<event>
 6   1  0.2604700E+01  0.8040000E+02  0.7957747E-01  0.1297830E+00
       -1   -1    0    0    0  501  0.00000000000E+00  0.00000000000E+00  0.21131917629E+02  0.21131917629E+02  0.00000000000E+00 0.  1.
        2   -1    0    0  502    0  0.00000000000E+00  0.00000000000E+00 -0.24233661270E+03  0.24233661270E+03  0.00000000000E+00 0. -1.
       24    2    1    2    0    0  0.23812175674E+02  0.79331551812E+01 -0.22303948774E+03  0.23830265809E+03  0.80072399124E+02 0.  0.
      -11    1    3    3    0    0  0.87234494056E+01  0.34999134884E+02 -0.45418841869E+02  0.57999217312E+02  0.00000000000E+00 0.  1.
       12    1    3    3    0    0  0.15088726269E+02 -0.27065979703E+02 -0.17762064587E+03  0.18030344078E+03  0.00000000000E+00 0. -1.
       21    1    1    2  502  501 -0.23812175674E+02 -0.79331551812E+01  0.18347926653E+01  0.25165872240E+02  0.00000000000E+00 0.  1.
</event>
<event>
 6   2  0.2604700E+01  0.8040000E+02  0.7957747E-01  0.1297830E+00
       21   -1    0    0  501  502  0.00000000000E+00  0.00000000000E+00  0.73486733004E+02  0.73486733004E+02  0.00000000000E+00 0. -1.
        1   -1    0    0  502    0  0.00000000000E+00  0.00000000000E+00 -0.16046405042E+03  0.16046405042E+03  0.00000000000E+00 0. -1.
      -24    2    1    2    0    0  0.33607887850E+02  0.26951268042E+02 -0.13835827023E+03  0.16689958443E+03  0.82804585415E+02 0.  0.
       11    1    3    3    0    0 -0.17679429467E+02 -0.89108565127E+01 -0.76065172322E+02  0.78599465841E+02  0.00000000000E+00 0. -1.
      -12    1    3    3    0    0  0.51287317318E+02  0.35862124555E+02 -0.62293097911E+02  0.88300118588E+02  0.00000000000E+00 0.  1.
        2    1    1    2  501    0 -0.33607887850E+02 -0.26951268042E+02  0.51380952815E+02  0.67051198998E+02  0.00000000000E+00 0. -1.
</event>
<event>
 6   2  0.2604700E+01  0.8040000E+02  0.7957747E-01  0.1297830E+00
       21   -1    0    0  501  502  0.00000000000E+00  0.00000000000E+00  0.22797008477E+02  0.22797008477E+02  0.00000000000E+00 0. -1.
       -2   -1    0    0    0  501  0.00000000000E+00  0.00000000000E+00 -0.18980715534E+03  0.18980715534E+03  0.00000000000E+00 0.  1.
      -24    2    1    2    0    0  0.14137823525E+02  0.23670863407E+02 -0.16130618388E+03  0.18444882645E+03  0.85096984630E+02 0.  0.
       11    1    3    3    0    0  0.33124924722E+02  0.39986803958E+02 -0.56678366610E+02  0.76867693931E+02  0.00000000000E+00 0. -1.
      -12    1    3    3    0    0 -0.18987101197E+02 -0.16315940551E+02 -0.10462781727E+03  0.10758113252E+03  0.00000000000E+00 0.  1.
       -1    1    1    2    0  502 -0.14137823525E+02 -0.23670863407E+02 -0.57039629843E+01  0.28155337366E+02  0.00000000000E+00 0.  1.
</event>
<event>
 6   2  0.2604700E+01  0.8040000E+02  0.7957747E-01  0.1297830E+00
       -2   -1    0    0    0  501  0.00000000000E+00  0.00000000000E+00  0.25437763479E+03  0.25437763479E+03  0.00000000000E+00 0.  1.
        1   -1    0    0  502    0  0.00000000000E+00  0.00000000000E+00 -0.13420583704E+02  0.13420583704E+02  0.00000000000E+00 0. -1.
      -24    2    1    2    0    0 -0.24591043853E+02  0.51859386181E+01  0.13919763762E+03  0.16298127509E+03  0.80964809096E+02 0.  0.
       11    1    3    3    0    0 -0.29450653234E+02  0.33726121274E+02  0.41375436242E+02  0.60964899380E+02  0.00000000000E+00 0. -1.
      -12    1    3    3    0    0  0.48596093813E+01 -0.28540182656E+02  0.97822201383E+02  0.10201637571E+03  0.00000000000E+00 0.  1.
       21    1    1    2  502  501  0.24591043853E+02 -0.51859386181E+01  0.10175941346E+03  0.10481694341E+03  0.00000000000E+00 0.  1.
</event>
<event>
 6   2  0.2604700E+01  0.8040000E+02  0.7957747E-01  0.1297830E+00
        1   -1    0    0  502    0  0.00000000000E+00  0.00000000000E+00  0.17314280359E+04  0.17314280359E+04  0.00000000000E+00 0. -1.
       -2   -1    0    0    0  501  0.00000000000E+00  0.00000000000E+00 -0.54842397263E+01  0.54842397263E+01  0.00000000000E+00 0.  1.
      -24    2    1    2    0    0  0.75242754553E+02  0.15862551427E+02  0.12214476830E+04  0.12265894162E+04  0.81694926183E+02 0.  0.
       11    1    3    3    0    0  0.57424553115E+01 -0.19791793593E+02  0.58549121405E+03  0.58585378092E+03  0.00000000000E+00 0. -1.
      -12    1    3    3    0    0  0.69500299242E+02  0.35654345020E+02  0.63595646895E+03  0.64073563528E+03  0.00000000000E+00 0.  1.
       21    1    1    2  502  501 -0.75242754553E+02 -0.15862551427E+02  0.50449611312E+03  0.51032285938E+03  0.00000000000E+00 0. -1.
</event>
<event>
 6   2  0.2604700E+01  0.8040000E+02  0.7957747E-01  0.1297830E+00
        1   -1    0    0  502    0  0.00000000000E+00  0.00000000000E+00  0.42658771261E+03  0.42658771261E+03  0.00000000000E+00 0. -1.
       -2   -1    0    0    0  501  0.00000000000E+00  0.00000000000E+00 -0.77177930230E+01  0.77177930230E+01  0.00000000000E+00 0.  1.
      -24    2    1    2    0    0  0.15900493337E+02  0.81587747535E+01  0.25709145716E+03  0.27154291104E+03  0.85557839483E+02 0.  0.
       11    1    3    3    0    0 -0.40816811062E+01  0.94100469214E+01  0.25013840945E+03  0.25034862290E+03  0.00000000000E+00 0. -1.
      -12    1    3    3    0    0  0.19982174443E+02 -0.12512721678E+01  0.69530477134E+01  0.21194288146E+02  0.00000000000E+00 0.  1.
       21    1    1    2  502  501 -0.15900493337E+02 -0.81587747535E+01  0.16177846243E+03  0.16276259459E+03  0.00000000000E+00 0. -1.
</event>
<event>
 6   2  0.2604700E+01  0.8040000E+02  0.7957747E-01  0.1297830E+00
       -2   -1    0    0    0  501  0.00000000000E+00  0.00000000000E+00  0.19095051150E+02  0.19095051150E+02  0.00000000000E+00 0.  1.
       21   -1    0    0  501  502  0.00000000000E+00  0.00000000000E+00 -0.90653998434E+03  0.90653998434E+03  0.00000000000E+00 0.  1.
      -24    2    1    2    0    0  0.37248738866E+02  0.73238622244E+02 -0.17832578126E+03  0.21177136785E+03  0.79345218162E+02 0.  0.
       11    1    3    3    0    0  0.33773432440E+02  0.71553768139E+01 -0.19357739466E+02  0.39579871568E+02  0.00000000000E+00 0. -1.
      -12    1    3    3    0    0  0.34753064265E+01  0.66083245430E+02 -0.15896804179E+03  0.17219149628E+03  0.00000000000E+00 0.  1.
       -1    1    1    2    0  502 -0.37248738866E+02 -0.73238622244E+02 -0.70911915193E+03  0.71386366764E+03  0.00000000000E+00 0.  1.
</event>
<event>
 6   1  0.2604700E+01  0.8040000E+02  0.7957747E-01  0.1297830E+00
        2   -1    0    0  502    0  0.00000000000E+00  0.00000000000E+00  0.12261381035E+04  0.12261381035E+04  0.00000000000E+00 0. -1.
       21   -1    0    0  501  502  0.00000000000E+00  0.00000000000E+00 -0.35616361931E+01  0.35616361931E+01  0.00000000000E+00 0.  1.
       24    2    1    2    0    0  0.21112725248E+02 -0.34592656192E+02  0.88230963934E+03  0.88702801158E+03  0.81890137594E+02 0.  0.
      -11    1    3    3    0    0  0.14812159862E+02  0.19997625336E+02  0.11064120867E+03  0.11340538856E+03  0.00000000000E+00 0.  1.
       12    1    3    3    0    0  0.63005653867E+01 -0.54590281529E+02  0.77166843067E+03  0.77362262302E+03  0.00000000000E+00 0. -1.
        1    1    1    2  501    0 -0.21112725248E+02  0.34592656192E+02  0.34026682801E+03  0.34267172815E+03  0.00000000000E+00 0. -1.
</event>
<event>
 6   1  0.2604700E+01  0.8040000E+02  0.7957747E-01  0.1297830E+00
        2   -1    0    0  502    0  0.00000000000E+00  0.00000000000E+00  0.94236014509E+03  0.94236014509E+03  0.00000000000E+00 0. -1.
       -1   -1    0    0    0  501  0.00000000000E+00  0.00000000000E+00 -0.48148398616E+01  0.48148398616E+01  0.00000000000E+00 0.  1.
       24    2    1    2    0    0 -0.27494980082E+02  0.11764233540E+02  0.41455600470E+03  0.42333132546E+03  0.80363915807E+02 0.  0.
      -11    1    3    3    0    0  0.50711962642E+01  0.34298265892E+01 -0.11830723766E+01  0.62354151611E+01  0.00000000000E+00 0.  1.
       12    1    3    3    0    0 -0.32566176347E+02  0.83344069511E+01  0.41573907708E+03  0.41709591030E+03  0.00000000000E+00 0. -1.
       21    1    1    2  502  501  0.27494980082E+02 -0.11764233540E+02  0.52298930053E+03  0.52384365949E+03  0.00000000000E+00 0. -1.
</event>
<event>
 6   1  0.2604700E+01  0.8040000E+02  0.7957747E-01  0.1297830E+00
        2   -1    0    0  502    0  0.00000000000E+00  0.00000000000E+00  0.14496593708E+04  0.14496593708E+04  0.00000000000E+00 0. -1.
       21   -1    0    0  501  502  0.00000000000E+00  0.00000000000E+00 -0.15466722375E+01  0.15466722375E+01  0.00000000000E+00 0.  1.
       24    2    1    2    0    0 -0.10015602945E+02  0.88012217356E+01  0.12634412573E+04  0.12660539028E+04  0.80192895013E+02 0.  0.
      -11    1    3    3    0    0 -0.69593309606E+01  0.57015345492E+01  0.14232571502E+02  0.16837632707E+02  0.00000000000E+00 0.  1.
       12    1    3    3    0    0 -0.30562719840E+01  0.30996871864E+01  0.12492086858E+04  0.12492162701E+04  0.00000000000E+00 0. -1.
        1    1    1    2  501    0  0.10015602945E+02 -0.88012217356E+01  0.18467144127E+03  0.18515214022E+03  0.00000000000E+00 0. -1.
</event>
<event>
 6   1  0.2604700E+01  0.8040000E+02  0.7957747E-01  0.1297830E+00
       -1   -1    0    0    0  501  0.00000000000E+00  0.00000000000E+00  0.20256963752E+02  0.20256963752E+02  0.00000000000E+00 0.  1.
        2   -1    0    0  502    0  0.00000000000E+00  0.00000000000E+00 -0.21018819350E+03  0.21018819350E+03  0.00000000000E+00 0. -1.
       24    2    1    2    0    0  0.73647495792E+01  0.24466369850E+02 -0.18609339914E+03  0.20460774767E+03  0.81121725908E+02 0.  0.
      -11    1    3    3    0    0 -0.96107009179E+01  0.38689887961E+02 -0.38702179498E+02  0.55561962713E+02  0.00000000000E+00 0.  1.
       12    1    3    3    0    0  0.16975450497E+02 -0.14223518111E+02 -0.14739121964E+03  0.14904578496E+03  0.00000000000E+00 0. -1.
       21    1    1    2  502  501 -0.73647495792E+01 -0.24466369850E+02 -0.38378306098E+01  0.25837409580E+02  0.00000000000E+00 0.  1.
</event>
<event>
 6   1  0.2604700E+01  0.8040000E+02  0.7957747E-01  0.1297830E+00
       21   -1    0    0  501  502  0.00000000000E+00  0.00000000000E+00  0.10619796015E+02  0.10619796015E+02  0.00000000000E+00 0.  1.
        2   -1    0    0  502    0  0.00000000000E+00  0.00000000000E+00 -0.25588146181E+03  0.25588146181E+03  0.00000000000E+00 0. -1.
       24    2    1    2    0    0 -0.20188417028E+02 -0.14022664415E+01 -0.18502180403E+03  0.20295301254E+03  0.80915504075E+02 0.  0.
      -11    1    3    3    0    0  0.26326152784E+01  0.21317783718E+02 -0.78355942171E+01  0.22864275684E+02  0.00000000000E+00 0.  1.
       12    1    3    3    0    0 -0.22821032306E+02 -0.22720050159E+02 -0.17718620981E+03  0.18008873685E+03  0.00000000000E+00 0. -1.
        1    1    1    2  501    0  0.20188417028E+02  0.14022664415E+01 -0.60239861763E+02  0.63548245283E+02  0.00000000000E+00 0. -1.
</event>
<event>
 6   1  0.2604700E+01  0.8040000E+02  0.7957747E-01  0.1297830E+00
       21   -1    0    0  501  502  0.00000000000E+00  0.00000000000E+00  0.24303359836E+02  0.24303359836E+02  0.00000000000E+00 0. -1.
        2   -1    0    0  502    0  0.00000000000E+00  0.00000000000E+00 -0.28591167169E+03  0.28591167169E+03  0.00000000000E+00 0. -1.
       24    2    1    2    0    0 -0.96073261724E+01 -0.23441426357E+02 -0.27048577720E+03  0.28337084078E+03  0.80589556066E+02 0.  0.
      -11    1    3    3    0    0  0.11875217353E+02  0.26922828033E+02 -0.83498867488E+02  0.88532029957E+02  0.00000000000E+00 0.  1.
       12    1    3    3    0    0 -0.21482543525E+02 -0.50364254390E+02 -0.18698690972E+03  0.19483881082E+03  0.00000000000E+00 0. -1.
        1    1    1    2  501    0  0.96073261724E+01  0.23441426357E+02  0.88774653517E+01  0.26844190748E+02  0.00000000000E+00 0. -1.
</event>
<event>
 6   1  0.2604700E+01  0.8040000E+02  0.7957747E-01  0.1297830E+00
       21   -1    0    0  501  502  0.00000000000E+00  0.00000000000E+00  0.44819780950E+02  0.44819780950E+02  0.00000000000E+00 0. -1.
        4   -1    0    0  502    0  0.00000000000E+00  0.00000000000E+00 -0.19900101498E+03  0.19900101498E+03  0.00000000000E+00 0. -1.
       24    2    1    2    0    0 -0.20095446906E+02  0.62255697707E+02 -0.14479105644E+03  0.17773165675E+03  0.79652325148E+02 0.  0.
      -11    1    3    3    0    0  0.18983435700E+02  0.22323697487E+02 -0.86226002731E+01  0.30546154192E+02  0.00000000000E+00 0.  1.
       12    1    3    3    0    0 -0.39078882606E+02  0.39932000220E+02 -0.13616845617E+03  0.14718550255E+03  0.00000000000E+00 0. -1.
        3    1    1    2  501    0  0.20095446906E+02 -0.62255697707E+02 -0.93901775947E+01  0.66089139188E+02  0.00000000000E+00 0. -1.
</event>
<event>
 6   1  0.2604700E+01  0.8040000E+02  0.7957747E-01  0.1297830E+00
        2   -1    0    0  502    0  0.00000000000E+00  0.00000000000E+00  0.10699867359E+04  0.10699867359E+04  0.00000000000E+00 0. -1.
       -1   -1    0    0    0  501  0.00000000000E+00  0.00000000000E+00 -0.47664065806E+01  0.47664065806E+01  0.00000000000E+00 0.  1.
       24    2    1    2    0    0 -0.35610251359E+02  0.43347907150E+01  0.95300104815E+03  0.95693952918E+03  0.78964449712E+02 0.  0.
      -11    1    3    3    0    0 -0.94398990038E+00  0.38000792166E+02  0.37481610158E+03  0.37673871758E+03  0.00000000000E+00 0.  1.
       12    1    3    3    0    0 -0.34666261459E+02 -0.33666001451E+02  0.57818494657E+03  0.58020081160E+03  0.00000000000E+00 0. -1.
       21    1    1    2  502  501  0.35610251359E+02 -0.43347907150E+01  0.11221928112E+03  0.11781361325E+03  0.00000000000E+00 0.  1.
</event>
<event>
 6   1  0.2604700E+01  0.8040000E+02  0.7957747E-01  0.1297830E+00
        2   -1    0    0  502    0  0.00000000000E+00  0.00000000000E+00  0.16355292608E+03  0.16355292608E+03  0.00000000000E+00 0. -1.
       21   -1    0    0  501  502  0.00000000000E+00  0.00000000000E+00 -0.22203270090E+02  0.22203270090E+02  0.00000000000E+00 0.  1.
       24    2    1    2    0    0 -0.16774604586E+02 -0.15038557210E+02  0.14041459584E+03  0.16320802774E+03  0.80081558630E+02 0.  0.
      -11    1    3    3    0    0  0.35453582563E-01 -0.30065894047E+01 -0.10480596042E+02  0.10903381595E+02  0.00000000000E+00 0.  1.
       12    1    3    3    0    0 -0.16810058168E+02 -0.12031967805E+02  0.15089519188E+03  0.15230464615E+03  0.00000000000E+00 0. -1.
        1    1    1    2  501    0  0.16774604586E+02  0.15038557210E+02  0.93506014994E+00  0.22548168428E+02  0.00000000000E+00 0. -1.
</event>
<event>
 6   1  0.2604700E+01  0.8040000E+02  0.7957747E-01  0.1297830E+00
        2   -1    0    0  502    0  0.00000000000E+00  0.00000000000E+00  0.13120141509E+02  0.13120141509E+02  0.00000000000E+00 0. -1.
       -1   -1    0    0    0  501  0.00000000000E+00  0.00000000000E+00 -0.31805255981E+03  0.31805255981E+03  0.00000000000E+00 0.  1.
       24    2    1    2    0    0  0.55981515244E+01  0.35405621561E+02 -0.25593942799E+03  0.27046676719E+03  0.79764553639E+02 0.  0.
      -11    1    3    3    0    0  0.16362133955E+02  0.11307315267E+00 -0.21392726554E+03  0.21455210825E+03  0.00000000000E+00 0.  1.
       12    1    3    3    0    0 -0.10763982430E+02  0.35292548408E+02 -0.42012162448E+02  0.55914658941E+02  0.00000000000E+00 0. -1.
       21    1    1    2  502  501 -0.55981515244E+01 -0.35405621561E+02 -0.48992990315E+02  0.60705934130E+02  0.00000000000E+00 0. -1.
</event>
<event>
 6   1  0.2604700E+01  0.8040000E+02  0.7957747E-01  0.1297830E+00
       -1   -1    0    0    0  501  0.00000000000E+00  0.00000000000E+00  0.20305382317E+02  0.20305382317E+02  0.00000000000E+00 0.  1.
        2   -1    0    0  502    0  0.00000000000E+00  0.00000000000E+00 -0.10371176069E+03  0.10371176069E+03  0.00000000000E+00 0. -1.
       24    2    1    2    0    0  0.11728076884E+01 -0.14437799371E+02 -0.71380525249E+02  0.10519038885E+03  0.75894749448E+02 0.  0.
      -11    1    3    3    0    0  0.28883072454E+02  0.59523496838E+01 -0.42998868835E+01  0.29801868538E+02  0.00000000000E+00 0.  1.
       12    1    3    3    0    0 -0.27710264766E+02 -0.20390149055E+02 -0.67080638365E+02  0.75388520315E+02  0.00000000000E+00 0. -1.
       21    1    1    2  502  501 -0.11728076884E+01  0.14437799371E+02 -0.12025853120E+02  0.18826754150E+02  0.00000000000E+00 0. -1.
</event>
<event>
 6   1  0.2604700E+01  0.8040000E+02  0.7957747E-01  0.1297830E+00
       21   -1    0    0  501  502  0.00000000000E+00  0.00000000000E+00  0.46183454467E+01  0.46183454467E+01  0.00000000000E+00 0.  1.
        2   -1    0    0  502    0  0.00000000000E+00  0.00000000000E+00 -0.77352770711E+03  0.77352770711E+03  0.00000000000E+00 0. -1.
       24    2    1    2    0    0 -0.10486431081E+02 -0.10837315455E+02 -0.74354035334E+03  0.74863335654E+03  0.85861707589E+02 0.  0.
      -11    1    3    3    0    0 -0.12108530164E+02 -0.43366257771E+02 -0.25019183572E+03  0.25421094288E+03  0.00000000000E+00 0.  1.
       12    1    3    3    0    0  0.16220990832E+01  0.32528942316E+02 -0.49334851762E+03  0.49442241366E+03  0.00000000000E+00 0. -1.
        1    1    1    2  501    0  0.10486431081E+02  0.10837315455E+02 -0.25369008320E+02  0.29512696017E+02  0.00000000000E+00 0. -1.
</event>
<event>
 6   2  0.2604700E+01  0.8040000E+02  0.7957747E-01  0.1297830E+00
        1   -1    0    0  502    0  0.00000000000E+00  0.00000000000E+00  0.12437877704E+03  0.12437877704E+03  0.00000000000E+00 0. -1.
       -2   -1    0    0    0  501  0.00000000000E+00  0.00000000000E+00 -0.21995747378E+02  0.21995747378E+02  0.00000000000E+00 0.  1.
      -24    2    1    2    0    0 -0.16135499992E+02 -0.11724131125E+02  0.94332209439E+02  0.12486579789E+03  0.79341616664E+02 0.  0.
       11    1    3    3    0    0 -0.56285812245E+01 -0.20746742410E+02  0.10512957716E+03  0.10730487519E+03  0.00000000000E+00 0. -1.
      -12    1    3    3    0    0 -0.10506918768E+02  0.90226112855E+01 -0.10797367717E+02  0.17560922698E+02  0.00000000000E+00 0.  1.
       21    1    1    2  502  501  0.16135499992E+02  0.11724131125E+02  0.80508202265E+01  0.21508726530E+02  0.00000000000E+00 0.  1.
</event>
<event>
 6   1  0.2604700E+01  0.8040000E+02  0.7957747E-01  0.1297830E+00
       21   -1    0    0  501  502  0.00000000000E+00  0.00000000000E+00  0.12008201029E+02  0.12008201029E+02  0.00000000000E+00 0.  1.
        4   -1    0    0  502    0  0.00000000000E+00  0.00000000000E+00 -0.29227442468E+03  0.29227442468E+03  0.00000000000E+00 0. -1.
       24    2    1    2    0    0  0.23871987514E+02  0.10335370098E+02 -0.15955243929E+03  0.18079777077E+03  0.80957775236E+02 0.  0.
      -11    1    3    3    0    0 -0.92845595637E+00  0.20875192401E+02 -0.20380566629E+01  0.20994984239E+02  0.00000000000E+00 0.  1.
       12    1    3    3    0    0  0.24800443470E+02 -0.10539822303E+02 -0.15751438263E+03  0.15980278653E+03  0.00000000000E+00 0. -1.
        3    1    1    2  501    0 -0.23871987514E+02 -0.10335370098E+02 -0.12071378436E+03  0.12348485493E+03  0.00000000000E+00 0. -1.
</event>
<event>
 6   1  0.2604700E+01  0.8040000E+02  0.7957747E-01  0.1297830E+00
       -1   -1    0    0    0  501  0.00000000000E+00  0.00000000000E+00  0.21918524467E+02  0.21918524467E+02  0.00000000000E+00 0.  1.
        2   -1    0    0  502    0  0.00000000000E+00  0.00000000000E+00 -0.14260175864E+04  0.14260175864E+04  0.00000000000E+00 0. -1.
       24    2    1    2    0    0  0.30547882072E+02  0.18608548281E+02 -0.65956853419E+02  0.10931591777E+03  0.79499762240E+02 0.  0.
      -11    1    3    3    0    0  0.56699236057E+02  0.20691937598E+02 -0.39983741943E+02  0.72399304352E+02  0.00000000000E+00 0.  1.
       12    1    3    3    0    0 -0.26151353985E+02 -0.20833893165E+01 -0.25973111477E+02  0.36916613416E+02  0.00000000000E+00 0. -1.
       21    1    1    2  502  501 -0.30547882072E+02 -0.18608548281E+02 -0.13381422085E+04  0.13386201931E+04  0.00000000000E+00 0. -1.
</event>
<event>
 6   1  0.2604700E+01  0.8040000E+02  0.7957747E-01  0.1297830E+00
        2   -1    0    0  502    0  0.00000000000E+00  0.00000000000E+00  0.10371270599E+04  0.10371270599E+04  0.00000000000E+00 0. -1.
       21   -1    0    0  501  502  0.00000000000E+00  0.00000000000E+00 -0.61985467262E+01  0.61985467262E+01  0.00000000000E+00 0. -1.
       24    2    1    2    0    0 -0.20457268044E+02 -0.44283076048E+02  0.41756357250E+03  0.42802402115E+03  0.80409793953E+02 0.  0.
      -11    1    3    3    0    0  0.18543729544E+02 -0.16299420086E+02  0.30034043843E+03  0.30135348008E+03  0.00000000000E+00 0.  1.
       12    1    3    3    0    0 -0.39000997589E+02 -0.27983655962E+02  0.11722313407E+03  0.12667054107E+03  0.00000000000E+00 0. -1.
        1    1    1    2  501    0  0.20457268044E+02  0.44283076048E+02  0.61336494071E+03  0.61530158551E+03  0.00000000000E+00 0. -1.
</event>
<event>
 6   2  0.2604700E+01  0.8040000E+02  0.7957747E-01  0.1297830E+00
        3   -1    0    0  502    0  0.00000000000E+00  0.00000000000E+00  0.13012100453E+03  0.13012100453E+03  0.00000000000E+00 0. -1.
       -4   -1    0    0    0  501  0.00000000000E+00  0.00000000000E+00 -0.70642169176E+02  0.70642169176E+02  0.00000000000E+00 0.  1.
      -24    2    1    2    0    0  0.36845030132E+02  0.67880128319E+02  0.51889777891E+02  0.12315607442E+03  0.80682101801E+02 0.  0.
       11    1    3    3    0    0  0.82469149124E+01  0.42995950412E+02  0.68878683551E+02  0.81614560007E+02  0.00000000000E+00 0. -1.
      -12    1    3    3    0    0  0.28598115220E+02  0.24884177907E+02 -0.16988905660E+02  0.41541514413E+02  0.00000000000E+00 0.  1.
       21    1    1    2  502  501 -0.36845030132E+02 -0.67880128319E+02  0.75890574601E+01  0.77607099283E+02  0.00000000000E+00 0. -1.
</event>
<event>
 6   2  0.2604700E+01  0.8040000E+02  0.7957747E-01  0.1297830E+00
       -2   -1    0    0    0  501  0.00000000000E+00  0.00000000000E+00  0.16352299356E+03  0.16352299356E+03  0.00000000000E+00 0.  1.
        1   -1    0    0  502    0  0.00000000000E+00  0.00000000000E+00 -0.58665969850E+02  0.58665969850E+02  0.00000000000E+00 0. -1.
      -24    2    1    2    0    0  0.11876931009E+02 -0.27422449904E+02 -0.26555572298E+02  0.87421301716E+02  0.77744667500E+02 0.  0.
       11    1    3    3    0    0 -0.39903677458E+01 -0.50667217237E+02 -0.30078369340E+02  0.59057584098E+02  0.00000000000E+00 0. -1.
      -12    1    3    3    0    0  0.15867298755E+02  0.23244767333E+02  0.35227970423E+01  0.28363717618E+02  0.00000000000E+00 0.  1.
       21    1    1    2  502  501 -0.11876931009E+02  0.27422449904E+02  0.13141259601E+03  0.13476766169E+03  0.00000000000E+00 0.  1.
</event>
<event>
 6   2  0.2604700E+01  0.8040000E+02  0.7957747E-01  0.1297830E+00
        1   -1    0    0  502    0  0.00000000000E+00  0.00000000000E+00  0.21620193799E+02  0.21620193799E+02  0.00000000000E+00 0. -1.
       21   -1    0    0  501  502  0.00000000000E+00  0.00000000000E+00 -0.99903734948E+02  0.99903734948E+02  0.00000000000E+00 0.  1.
      -24    2    1    2    0    0 -0.11375346884E+02  0.35783627285E+01 -0.69742763339E+02  0.10685600176E+03  0.80074645656E+02 0.  0.
       11    1    3    3    0    0 -0.36022263705E+01  0.90230755847E+00  0.18177141066E+02  0.18552591493E+02  0.00000000000E+00 0. -1.
      -12    1    3    3    0    0 -0.77731205133E+01  0.26760551701E+01 -0.87919904406E+02  0.88303410265E+02  0.00000000000E+00 0.  1.
        2    1    1    2  501    0  0.11375346884E+02 -0.35783627285E+01 -0.85407778106E+01  0.14667926989E+02  0.00000000000E+00 0. -1.
</event>
<event>
 6   1  0.2604700E+01  0.8040000E+02  0.7957747E-01  0.1297830E+00
        2   -1    0    0  502    0  0.00000000000E+00  0.00000000000E+00  0.12074679794E+04  0.12074679794E+04  0.00000000000E+00 0. -1.
       21   -1    0    0  501  502  0.00000000000E+00  0.00000000000E+00 -0.23015944740E+01  0.23015944740E+01  0.00000000000E+00 0.  1.
       24    2    1    2    0    0 -0.14017272490E+02  0.20950051649E+02  0.97555168086E+03  0.97877541613E+03  0.75265161826E+02 0.  0.
      -11    1    3    3    0    0 -0.28835927032E+02  0.42596189953E+02  0.73495498659E+03  0.73675286114E+03  0.00000000000E+00 0.  1.
       12    1    3    3    0    0  0.14818654542E+02 -0.21646138305E+02  0.24059669428E+03  0.24202255499E+03  0.00000000000E+00 0. -1.
        1    1    1    2  501    0  0.14017272490E+02 -0.20950051649E+02  0.22961470410E+03  0.23099415779E+03  0.00000000000E+00 0. -1.
</event>
<event>
 6   2  0.2604700E+01  0.8040000E+02  0.7957747E-01  0.1297830E+00
       21   -1    0    0  501  502  0.00000000000E+00  0.00000000000E+00  0.14952852652E+02  0.14952852652E+02  0.00000000000E+00 0.  1.
        1   -1    0    0  502    0  0.00000000000E+00  0.00000000000E+00 -0.19352744167E+03  0.19352744167E+03  0.00000000000E+00 0. -1.
      -24    2    1    2    0    0 -0.11957888783E+02  0.18989094688E+02 -0.13733309279E+03  0.16152885310E+03  0.82022040872E+02 0.  0.
       11    1    3    3    0    0 -0.43696715218E+02  0.20232875363E+02 -0.10818767420E+03  0.11842020526E+03  0.00000000000E+00 0. -1.
      -12    1    3    3    0    0  0.31738826435E+02 -0.12437806748E+01 -0.29145418593E+02  0.43108647842E+02  0.00000000000E+00 0.  1.
        2    1    1    2  501    0  0.11957888783E+02 -0.18989094688E+02 -0.41241496229E+02  0.46951441218E+02  0.00000000000E+00 0. -1.
</event>
<event>
 6   2  0.2604700E+01  0.8040000E+02  0.7957747E-01  0.1297830E+00
       21   -1    0    0  501  502  0.00000000000E+00  0.00000000000E+00  0.10601695036E+02  0.10601695036E+02  0.00000000000E+00 0. -1.
        1   -1    0    0  502    0  0.00000000000E+00  0.00000000000E+00 -0.45140062681E+03  0.45140062681E+03  0.00000000000E+00 0. -1.
      -24    2    1    2    0    0  0.94180690741E+01 -0.27667585872E+02 -0.41238727456E+03  0.42124183119E+03  0.80791217286E+02 0.  0.
       11    1    3    3    0    0  0.25216150176E+02  0.22201126820E+02 -0.15863697116E+03  0.16215558233E+03  0.00000000000E+00 0. -1.
      -12    1    3    3    0    0 -0.15798081102E+02 -0.49868712692E+02 -0.25375030340E+03  0.25908624886E+03  0.00000000000E+00 0.  1.
        2    1    1    2  501    0 -0.94180690741E+01  0.27667585872E+02 -0.28411657215E+02  0.40760490659E+02  0.00000000000E+00 0. -1.
</event>
<event>
 6   1  0.2604700E+01  0.8040000E+02  0.7957747E-01  0.1297830E+00
        2   -1    0    0  502    0  0.00000000000E+00  0.00000000000E+00  0.30502782964E+03  0.30502782964E+03  0.00000000000E+00 0. -1.
       -1   -1    0    0    0  501  0.00000000000E+00  0.00000000000E+00 -0.80804735100E+01  0.80804735100E+01  0.00000000000E+00 0.  1.
       24    2    1    2    0    0  0.59783562846E+01 -0.13645605861E+02  0.24639888968E+03  0.26041019348E+03  0.82940416720E+02 0.  0.
      -11    1    3    3    0    0 -0.37749052381E+02  0.16285696263E+01  0.10263795752E+03  0.10937181318E+03  0.00000000000E+00 0.  1.
       12    1    3    3    0    0  0.43727408666E+02 -0.15274175487E+02  0.14376093216E+03  0.15103838029E+03  0.00000000000E+00 0. -1.
       21    1    1    2  502  501 -0.59783562846E+01  0.13645605861E+02  0.50548466452E+02  0.52698109679E+02  0.00000000000E+00 0. -1.
</event>
<event>
 6   2  0.2604700E+01  0.8040000E+02  0.7957747E-01  0.1297830E+00
        1   -1    0    0  502    0  0.00000000000E+00  0.00000000000E+00  0.24202234132E+03  0.24202234132E+03  0.00000000000E+00 0. -1.
       21   -1    0    0  501  502  0.00000000000E+00  0.00000000000E+00 -0.12190734671E+02  0.12190734671E+02  0.00000000000E+00 0. -1.
      -24    2    1    2    0    0 -0.18590444565E+02 -0.19689816786E+02  0.19889489079E+03  0.21309891903E+03  0.71544938302E+02 0.  0.
       11    1    3    3    0    0 -0.29717430761E+02 -0.24910708394E+02  0.19685739208E+03  0.20064023001E+03  0.00000000000E+00 0. -1.
      -12    1    3    3    0    0  0.11126986196E+02  0.52208916079E+01  0.20374987055E+01  0.12458689015E+02  0.00000000000E+00 0.  1.
        2    1    1    2  501    0  0.18590444565E+02  0.19689816786E+02  0.30936715859E+02  0.41114156958E+02  0.00000000000E+00 0. -1.
</event>
<event>
 6   1  0.2604700E+01  0.8040000E+02  0.7957747E-01  0.1297830E+00
        4   -1    0    0  502    0  0.00000000000E+00  0.00000000000E+00  0.24890653669E+02  0.24890653669E+02  0.00000000000E+00 0. -1.
       -3   -1    0    0    0  501  0.00000000000E+00  0.00000000000E+00 -0.10488765840E+03  0.10488765840E+03  0.00000000000E+00 0.  1.
       24    2    1    2    0    0  0.16165087523E+02 -0.99832103501E+00 -0.51246946723E+02  0.96780243414E+02  0.80485149359E+02 0.  0.
      -11    1    3    3    0    0  0.79428820289E+01  0.21230993140E+02 -0.65371038940E+02  0.69189718721E+02  0.00000000000E+00 0.  1.
       12    1    3    3    0    0  0.82222054939E+01 -0.22229314175E+02  0.14124092217E+02  0.27590524693E+02  0.00000000000E+00 0. -1.
       21    1    1    2  502  501 -0.16165087523E+02  0.99832103501E+00 -0.28750058006E+02  0.32998068654E+02  0.00000000000E+00 0.  1.
</event>
<event>
 6   2  0.2604700E+01  0.8040000E+02  0.7957747E-01  0.1297830E+00
       21   -1    0    0  501  502  0.00000000000E+00  0.00000000000E+00  0.11730913934E+02  0.11730913934E+02  0.00000000000E+00 0. -1.
       -2   -1    0    0    0  501  0.00000000000E+00  0.00000000000E+00 -0.23478967332E+03  0.23478967332E+03  0.00000000000E+00 0.  1.
      -24    2    1    2    0    0 -0.17391121810E+02 -0.80579131997E+01 -0.17266955199E+03  0.19260905505E+03  0.83163049600E+02 0.  0.
       11    1    3    3    0    0 -0.44800010959E+02 -0.25125609309E+00 -0.14891534492E+03  0.15550846943E+03  0.00000000000E+00 0. -1.
      -12    1    3    3    0    0  0.27408889149E+02 -0.78066571066E+01 -0.23754207064E+02  0.37100585612E+02  0.00000000000E+00 0.  1.
       -1    1    1    2    0  502  0.17391121810E+02  0.80579131997E+01 -0.50389207399E+02  0.53911532210E+02  0.00000000000E+00 0.  1.
</event>
<event>
 6   2  0.2604700E+01  0.8040000E+02  0.7957747E-01  0.1297830E+00
       21   -1    0    0  501  502  0.00000000000E+00  0.00000000000E+00  0.13057989123E+02  0.13057989123E+02  0.00000000000E+00 0.  1.
        1   -1    0    0  502    0  0.00000000000E+00  0.00000000000E+00 -0.37259900087E+03  0.37259900087E+03  0.00000000000E+00 0. -1.
      -24    2    1    2    0    0 -0.16664161415E+02 -0.18393817583E+02 -0.13180290346E+03  0.15657038461E+03  0.80785228692E+02 0.  0.
       11    1    3    3    0    0 -0.11846248158E+02 -0.49380816420E+02 -0.62702186200E+02  0.80686819122E+02  0.00000000000E+00 0. -1.
      -12    1    3    3    0    0 -0.48179132568E+01  0.30986998837E+02 -0.69100717257E+02  0.75883565483E+02  0.00000000000E+00 0.  1.
        2    1    1    2  501    0  0.16664161415E+02  0.18393817583E+02 -0.22773810829E+03  0.22908660538E+03  0.00000000000E+00 0. -1.
</event>
<event>
 6   2  0.2604700E+01  0.8040000E+02  0.7957747E-01  0.1297830E+00
       21   -1    0    0  501  502  0.00000000000E+00  0.00000000000E+00  0.56722408806E+02  0.56722408806E+02  0.00000000000E+00 0. -1.
       -2   -1    0    0    0  501  0.00000000000E+00  0.00000000000E+00 -0.72195252860E+02  0.72195252860E+02  0.00000000000E+00 0.  1.
      -24    2    1    2    0    0  0.27777475964E+02  0.25267657643E+02 -0.20265042893E+02  0.91062571342E+02  0.80446735436E+02 0.  0.
       11    1    3    3    0    0  0.50206589384E+02 -0.37571548598E+01 -0.27705290231E+01  0.50423146086E+02  0.00000000000E+00 0. -1.
      -12    1    3    3    0    0 -0.22429113419E+02  0.29024812503E+02 -0.17494513870E+02  0.40639425256E+02  0.00000000000E+00 0.  1.
       -1    1    1    2    0  502 -0.27777475964E+02 -0.25267657643E+02  0.47921988385E+01  0.37855090324E+02  0.00000000000E+00 0.  1.
</event>
<event>
 6   2  0.2604700E+01  0.8040000E+02  0.7957747E-01  0.1297830E+00
       -2   -1    0    0    0  501  0.00000000000E+00  0.00000000000E+00  0.87016746365E+02  0.87016746365E+02  0.00000000000E+00 0.  1.
        1   -1    0    0  502    0  0.00000000000E+00  0.00000000000E+00 -0.63475357587E+02  0.63475357587E+02  0.00000000000E+00 0. -1.
      -24    2    1    2    0    0  0.26827854001E+01  0.51078353525E+02  0.12776435086E+02  0.98222803552E+02  0.82875124783E+02 0.  0.
       11    1    3    3    0    0  0.24998673847E+02 -0.20621530125E+01 -0.19854755182E+02  0.31990584123E+02  0.00000000000E+00 0. -1.
      -12    1    3    3    0    0 -0.22315888447E+02  0.53140506537E+02  0.32631190267E+02  0.66232219429E+02  0.00000000000E+00 0.  1.
       21    1    1    2  502  501 -0.26827854001E+01 -0.51078353525E+02  0.10764953693E+02  0.52269300400E+02  0.00000000000E+00 0. -1.
</event>
<event>
 6   1  0.2604700E+01  0.8040000E+02  0.7957747E-01  0.1297830E+00
       -1   -1    0    0    0  501  0.00000000000E+00  0.00000000000E+00  0.18300503318E+01  0.18300503318E+01  0.00000000000E+00 0.  1.
        2   -1    0    0  502    0  0.00000000000E+00  0.00000000000E+00 -0.12651102776E+04  0.12651102776E+04  0.00000000000E+00 0. -1.
       24    2    1    2    0    0  0.14309580976E+02  0.34029634566E+00 -0.11208298784E+04  0.11237726577E+04  0.80003062144E+02 0.  0.
      -11    1    3    3    0    0 -0.17706187516E+02 -0.14813150895E+02 -0.11369247429E+03  0.11601257357E+03  0.00000000000E+00 0.  1.
       12    1    3    3    0    0  0.32015768491E+02  0.15153447240E+02 -0.10071374041E+04  0.10077600841E+04  0.00000000000E+00 0. -1.
       21    1    1    2  502  501 -0.14309580976E+02 -0.34029634566E+00 -0.14245034890E+03  0.14316767027E+03  0.00000000000E+00 0.  1.
</event>
<event>
 6   2  0.2604700E+01  0.8040000E+02  0.7957747E-01  0.1297830E+00
       21   -1    0    0  501  502  0.00000000000E+00  0.00000000000E+00  0.13251690543E+03  0.13251690543E+03  0.00000000000E+00 0. -1.
       -4   -1    0    0    0  501  0.00000000000E+00  0.00000000000E+00 -0.29238405773E+02  0.29238405773E+02  0.00000000000E+00 0.  1.
      -24    2    1    2    0    0 -0.49845186057E+00  0.21896174472E+02  0.37888204104E+02  0.92794585689E+02  0.81826818417E+02 0.  0.
       11    1    3    3    0    0 -0.21814144922E+02 -0.24381072004E+02  0.21999477043E+02  0.39424238495E+02  0.00000000000E+00 0. -1.
      -12    1    3    3    0    0  0.21315693061E+02  0.46277246476E+02  0.15888727061E+02  0.53370347195E+02  0.00000000000E+00 0.  1.
       -3    1    1    2    0  502  0.49845186057E+00 -0.21896174472E+02  0.65390295554E+02  0.68960725514E+02  0.00000000000E+00 0.  1.
</event>
<event>
 6   1  0.2604700E+01  0.8040000E+02  0.7957747E-01  0.1297830E+00
        2   -1    0    0  502    0  0.00000000000E+00  0.00000000000E+00  0.92163850899E+02  0.92163850899E+02  0.00000000000E+00 0. -1.
       21   -1    0    0  501  502  0.00000000000E+00  0.00000000000E+00 -0.27583714339E+02  0.27583714339E+02  0.00000000000E+00 0. -1.
       24    2    1    2    0    0  0.16849526966E+02 -0.32285472120E+00  0.44285658560E+02  0.93368091562E+02  0.80451042092E+02 0.  0.
      -11    1    3    3    0    0 -0.77093815540E+01 -0.27790989354E+02 -0.75113883931E+01  0.29802593995E+02  0.00000000000E+00 0.  1.
       12    1    3    3    0    0  0.24558908520E+02  0.27468134633E+02  0.51797046953E+02  0.63565497567E+02  0.00000000000E+00 0. -1.
        1    1    1    2  501    0 -0.16849526966E+02  0.32285472120E+00  0.20294478000E+02  0.26379473676E+02  0.00000000000E+00 0. -1.
</event>
<event>
 6   1  0.2604700E+01  0.8040000E+02  0.7957747E-01  0.1297830E+00
        2   -1    0    0  502    0  0.00000000000E+00  0.00000000000E+00  0.19152479646E+02  0.19152479646E+02  0.00000000000E+00 0. -1.
       -1   -1    0    0    0  501  0.00000000000E+00  0.00000000000E+00 -0.15349363758E+03  0.15349363758E+03  0.00000000000E+00 0.  1.
       24    2    1    2    0    0  0.12056856080E+02  0.13767889392E+02 -0.76697992171E+02  0.11216754982E+03  0.79775025364E+02 0.  0.
      -11    1    3    3    0    0  0.13485003228E+02  0.44471297438E+02 -0.63570770814E+02  0.78745060225E+02  0.00000000000E+00 0.  1.
       12    1    3    3    0    0 -0.14281471476E+01 -0.30703408046E+02 -0.13127221356E+02  0.33422489591E+02  0.00000000000E+00 0. -1.
       21    1    1    2  502  501 -0.12056856080E+02 -0.13767889392E+02 -0.57643165761E+02  0.60478567409E+02  0.00000000000E+00 0.  1.
</event>
<event>
 6   1  0.2604700E+01  0.8040000E+02  0.7957747E-01  0.1297830E+00
        2   -1    0    0  502    0  0.00000000000E+00  0.00000000000E+00  0.14896653666E+04  0.14896653666E+04  0.00000000000E+00 0. -1.
       21   -1    0    0  501  502  0.00000000000E+00  0.00000000000E+00 -0.19637633589E+01  0.19637633589E+01  0.00000000000E+00 0. -1.
       24    2    1    2    0    0 -0.21740284356E+02 -0.65515729303E+01  0.10820655665E+04  0.10853580907E+04  0.81367878673E+02 0.  0.
      -11    1    3    3    0    0  0.25001839862E+02 -0.18340138942E+02  0.62236111531E+03  0.62313306006E+03  0.00000000000E+00 0.  1.
       12    1    3    3    0    0 -0.46742124219E+02  0.11788566012E+02  0.45970445120E+03  0.46222503061E+03  0.00000000000E+00 0. -1.
        1    1    1    2  501    0  0.21740284356E+02  0.65515729303E+01  0.40563603672E+03  0.40627103928E+03  0.00000000000E+00 0. -1.
</event>
<event>
 6   2  0.2604700E+01  0.8040000E+02  0.7957747E-01  0.1297830E+00
       21   -1    0    0  501  502  0.00000000000E+00  0.00000000000E+00  0.51738011492E+01  0.51738011492E+01  0.00000000000E+00 0.  1.
        1   -1    0    0  502    0  0.00000000000E+00  0.00000000000E+00 -0.66669011698E+03  0.66669011698E+03  0.00000000000E+00 0. -1.
      -24    2    1    2    0    0 -0.15607785307E+02  0.11136512417E+02 -0.34818254052E+03  0.35794405635E+03  0.80778964342E+02 0.  0.
       11    1    3    3    0    0 -0.29418203519E+01  0.25542842200E+02 -0.33157747233E+03  0.33257286608E+03  0.00000000000E+00 0. -1.
      -12    1    3    3    0    0 -0.12665964955E+02 -0.14406329783E+02 -0.16605068190E+02  0.25371190268E+02  0.00000000000E+00 0.  1.
        2    1    1    2  501    0  0.15607785307E+02 -0.11136512417E+02 -0.31333377531E+03  0.31391986178E+03  0.00000000000E+00 0. -1.
</event>
<event>
 6   1  0.2604700E+01  0.8040000E+02  0.7957747E-01  0.1297830E+00
       21   -1    0    0  501  502  0.00000000000E+00  0.00000000000E+00  0.19164954216E+03  0.19164954216E+03  0.00000000000E+00 0. -1.
        2   -1    0    0  502    0  0.00000000000E+00  0.00000000000E+00 -0.24911422045E+02  0.24911422045E+02  0.00000000000E+00 0. -1.
       24    2    1    2    0    0  0.19036571709E+02 -0.23436165235E+01  0.53800560428E+02  0.10200627862E+03  0.84515661123E+02 0.  0.
      -11    1    3    3    0    0  0.22512585008E+02  0.38182388674E+02  0.37951894359E+02  0.58352871172E+02  0.00000000000E+00 0.  1.
       12    1    3    3    0    0 -0.34760132993E+01 -0.40526005198E+02  0.15848666069E+02  0.43653407449E+02  0.00000000000E+00 0. -1.
        1    1    1    2  501    0 -0.19036571709E+02  0.23436165235E+01  0.11293755969E+03  0.11455468558E+03  0.00000000000E+00 0. -1.
</event>
<event>
 6   2  0.2604700E+01  0.8040000E+02  0.7957747E-01  0.1297830E+00
       -2   -1    0    0    0  501  0.00000000000E+00  0.00000000000E+00  0.32449377382E+03  0.32449377382E+03  0.00000000000E+00 0.  1.
        1   -1    0    0  502    0  0.00000000000E+00  0.00000000000E+00 -0.45738218825E+02  0.45738218825E+02  0.00000000000E+00 0. -1.
      -24    2    1    2    0    0  0.43463947057E+02 -0.89661177020E+02  0.21940853844E+03  0.25425652225E+03  0.81105061566E+02 0.  0.
       11    1    3    3    0    0  0.42662018800E+02 -0.81948733239E+02  0.10611681800E+03  0.14069975760E+03  0.00000000000E+00 0. -1.
      -12    1    3    3    0    0  0.80192825715E+00 -0.77124437807E+01  0.11329172044E+03  0.11355676465E+03  0.00000000000E+00 0.  1.
       21    1    1    2  502  501 -0.43463947057E+02  0.89661177020E+02  0.59347016561E+02  0.11597547039E+03  0.00000000000E+00 0.  1.
</event>
<event>
 6   2  0.2604700E+01  0.8040000E+02  0.7957747E-01  0.1297830E+00
        1   -1    0    0  502    0  0.00000000000E+00  0.00000000000E+00  0.14477040656E+03  0.14477040656E+03  0.00000000000E+00 0. -1.
       -2   -1    0    0    0  501  0.00000000000E+00  0.00000000000E+00 -0.16943008570E+02  0.16943008570E+02  0.00000000000E+00 0.  1.
      -24    2    1    2    0    0 -0.59000822297E+01  0.15137227022E+02  0.11137980481E+03  0.13859480934E+03  0.80864786184E+02 0.  0.
       11    1    3    3    0    0 -0.81522497192E+01 -0.18800597784E+02  0.10096495434E+03  0.10302351022E+03  0.00000000000E+00 0. -1.
      -12    1    3    3    0    0  0.22521674895E+01  0.33937824806E+02  0.10414850468E+02  0.35571299123E+02  0.00000000000E+00 0.  1.
       21    1    1    2  502  501  0.59000822297E+01 -0.15137227022E+02  0.16447593183E+02  0.23118605792E+02  0.00000000000E+00 0.  1.
</event>
<event>
 6   2  0.2604700E+01  0.8040000E+02  0.7957747E-01  0.1297830E+00
        1   -1    0    0  502    0  0.00000000000E+00  0.00000000000E+00  0.51678060583E+03  0.51678060583E+03  0.00000000000E+00 0. -1.
       21   -1    0    0  501  502  0.00000000000E+00  0.00000000000E+00 -0.41681801972E+02  0.41681801972E+02  0.00000000000E+00 0. -1.
      -24    2    1    2    0    0 -0.83672508436E+02 -0.91179323017E+01  0.45824851361E+03  0.47262443462E+03  0.79359502399E+02 0.  0.
       11    1    3    3    0    0 -0.15971324528E+02 -0.12389127747E+02  0.29729571721E+03  0.29798207524E+03  0.00000000000E+00 0. -1.
      -12    1    3    3    0    0 -0.67701183908E+02  0.32711954455E+01  0.16095279640E+03  0.17464235939E+03  0.00000000000E+00 0.  1.
        2    1    1    2  501    0  0.83672508436E+02  0.91179323017E+01  0.16850290244E+02  0.85837973174E+02  0.00000000000E+00 0. -1.
</event>
<event>
 6   1  0.2604700E+01  0.8040000E+02  0.7957747E-01  0.1297830E+00
        2   -1    0    0  502    0  0.00000000000E+00  0.00000000000E+00  0.21767011494E+03  0.21767011494E+03  0.00000000000E+00 0. -1.
       21   -1    0    0  501  502  0.00000000000E+00  0.00000000000E+00 -0.43935725170E+02  0.43935725170E+02  0.00000000000E+00 0. -1.
       24    2    1    2    0    0  0.17374632473E+02 -0.20897519413E+02  0.20479905175E+03  0.22033118209E+03  0.76580637458E+02 0.  0.
      -11    1    3    3    0    0  0.21283975093E+02  0.22367439917E+02  0.43897019382E+02  0.53668037740E+02  0.00000000000E+00 0.  1.
       12    1    3    3    0    0 -0.39093426197E+01 -0.43264959330E+02  0.16090203236E+03  0.16666314435E+03  0.00000000000E+00 0. -1.
        1    1    1    2  501    0 -0.17374632473E+02  0.20897519413E+02 -0.31064661975E+02  0.41274658022E+02  0.00000000000E+00 0. -1.
</event>
<event>
 6   1  0.2604700E+01  0.8040000E+02  0.7957747E-01  0.1297830E+00
        2   -1    0    0  502    0  0.00000000000E+00  0.00000000000E+00  0.19617569118E+02  0.19617569118E+02  0.00000000000E+00 0. -1.
       -1   -1    0    0    0  501  0.00000000000E+00  0.00000000000E+00 -0.13526975518E+03  0.13526975518E+03  0.00000000000E+00 0.  1.
       24    2    1    2    0    0  0.12657677138E+02  0.15341073029E+02 -0.10082804096E+03  0.13008166789E+03  0.79745728181E+02 0.  0.
      -11    1    3    3    0    0  0.28781422485E+02 -0.46197434523E+01 -0.10026458697E+03  0.10441599355E+03  0.00000000000E+00 0.  1.
       12    1    3    3    0    0 -0.16123745347E+02  0.19960816482E+02 -0.56345399812E+00  0.25665674335E+02  0.00000000000E+00 0. -1.
       21    1    1    2  502  501 -0.12657677138E+02 -0.15341073029E+02 -0.14824145099E+02  0.24805656414E+02  0.00000000000E+00 0. -1.
</event>
<event>
 6   1  0.2604700E+01  0.8040000E+02  0.7957747E-01  0.1297830E+00
       -1   -1    0    0    0  501  0.00000000000E+00  0.00000000000E+00  0.80790596830E+01  0.80790596830E+01  0.00000000000E+00 0.  1.
        2   -1    0    0  502    0  0.00000000000E+00  0.00000000000E+00 -0.31209334336E+03  0.31209334336E+03  0.00000000000E+00 0. -1.
       24    2    1    2    0    0 -0.88578352891E+01  0.11200930850E+02 -0.27912081436E+03  0.29147385059E+03  0.82732426982E+02 0.  0.
      -11    1    3    3    0    0  0.23489848497E+02 -0.88873492618E+01 -0.28542179480E+02  0.38018600300E+02  0.00000000000E+00 0.  1.
       12    1    3    3    0    0 -0.32347683786E+02  0.20088280112E+02 -0.25057863488E+03  0.25345525029E+03  0.00000000000E+00 0. -1.
       21    1    1    2  502  501  0.88578352891E+01 -0.11200930850E+02 -0.24893469319E+02  0.28698552449E+02  0.00000000000E+00 0.  1.
</event>
<event>
 6   1  0.2604700E+01  0.8040000E+02  0.7957747E-01  0.1297830E+00
        4   -1    0    0  502    0  0.00000000000E+00  0.00000000000E+00  0.94295007688E+01  0.94295007688E+01  0.00000000000E+00 0. -1.
       -3   -1    0    0    0  501  0.00000000000E+00  0.00000000000E+00 -0.33214532910E+03  0.33214532910E+03  0.00000000000E+00 0.  1.
       24    2    1    2    0    0 -0.11031409565E+02  0.10587284389E+02 -0.31271577409E+03  0.32330508240E+03  0.80630257069E+02 0.  0.
      -11    1    3    3    0    0 -0.46151705337E+02  0.69854937088E+01 -0.18530062182E+03  0.19108923955E+03  0.00000000000E+00 0.  1.
       12    1    3    3    0    0  0.35120295772E+02  0.36017906803E+01 -0.12741515227E+03  0.13221584285E+03  0.00000000000E+00 0. -1.
       21    1    1    2  502  501  0.11031409565E+02 -0.10587284389E+02 -0.10000054246E+02  0.18269747471E+02  0.00000000000E+00 0. -1.
</event>
<event>
 6   1  0.2604700E+01  0.8040000E+02  0.7957747E-01  0.1297830E+00
       -1   -1    0    0    0  501  0.00000000000E+00  0.00000000000E+00  0.10224163378E+02  0.10224163378E+02  0.00000000000E+00 0.  1.
        2   -1    0    0  502    0  0.00000000000E+00  0.00000000000E+00 -0.12579501817E+04  0.12579501817E+04  0.00000000000E+00 0. -1.
       24    2    1    2    0    0  0.54148886031E+02 -0.38453807965E+02 -0.11122561039E+04  0.11173005736E+04  0.82680916098E+02 0.  0.
      -11    1    3    3    0    0 -0.20089384438E+02  0.35232605111E+01 -0.25399562089E+03  0.25481321034E+03  0.00000000000E+00 0.  1.
       12    1    3    3    0    0  0.74238270469E+02 -0.41977068476E+02 -0.85826048306E+03  0.86248736330E+03  0.00000000000E+00 0. -1.
       21    1    1    2  502  501 -0.54148886031E+02  0.38453807965E+02 -0.13546991434E+03  0.15087377140E+03  0.00000000000E+00 0.  1.
</event>
<event>
 6   2  0.2604700E+01  0.8040000E+02  0.7957747E-01  0.1297830E+00
       21   -1    0    0  501  502  0.00000000000E+00  0.00000000000E+00  0.27098634352E+02  0.27098634352E+02  0.00000000000E+00 0. -1.
       -2   -1    0    0    0  501  0.00000000000E+00  0.00000000000E+00 -0.98084010946E+02  0.98084010946E+02  0.00000000000E+00 0.  1.
      -24    2    1    2    0    0 -0.11275371728E+02  0.10943524032E+02 -0.42615029393E+02  0.92751621168E+02  0.80869819916E+02 0.  0.
       11    1    3    3    0    0 -0.38711106984E+02 -0.75031450854E+01 -0.79178923585E+00  0.39439496958E+02  0.00000000000E+00 0. -1.
      -12    1    3    3    0    0  0.27435735256E+02  0.18446669118E+02 -0.41823240157E+02  0.53312124210E+02  0.00000000000E+00 0.  1.
       -1    1    1    2    0  502  0.11275371728E+02 -0.10943524032E+02 -0.28370347201E+02  0.32431024130E+02  0.00000000000E+00 0.  1.
</event>
<event>
 6   2  0.2604700E+01  0.8040000E+02  0.7957747E-01  0.1297830E+00
        1   -1    0    0  502    0  0.00000000000E+00  0.00000000000E+00  0.77172691298E+03  0.77172691298E+03  0.00000000000E+00 0. -1.
       21   -1    0    0  501  502  0.00000000000E+00  0.00000000000E+00 -0.22238971238E+02  0.22238971238E+02  0.00000000000E+00 0.  1.
      -24    2    1    2    0    0  0.21136251546E+02 -0.11539248340E+03  0.45924915873E+03  0.48091522136E+03  0.81286493250E+02 0.  0.
       11    1    3    3    0    0  0.19566183008E+02 -0.30052347497E+02  0.28105389356E+03  0.28333243760E+03  0.00000000000E+00 0. -1.
      -12    1    3    3    0    0  0.15700685386E+01 -0.85340135899E+02  0.17819526517E+03  0.19758278376E+03  0.00000000000E+00 0.  1.
        2    1    1    2  501    0 -0.21136251546E+02  0.11539248340E+03  0.29023878302E+03  0.31305066287E+03  0.00000000000E+00 0. -1.
</event>
<event>
 6   1  0.2604700E+01  0.8040000E+02  0.7957747E-01  0.1297830E+00
       -1   -1    0    0    0  501  0.00000000000E+00  0.00000000000E+00  0.95260946302E+02  0.95260946302E+02  0.00000000000E+00 0.  1.
       21   -1    0    0  501  502  0.00000000000E+00  0.00000000000E+00 -0.19929770672E+03  0.19929770672E+03  0.00000000000E+00 0.  1.
       24    2    1    2    0    0 -0.47988582374E+02  0.57400254358E+02  0.51978455911E+02  0.12153136915E+03  0.80438924469E+02 0.  0.
      -11    1    3    3    0    0 -0.40033207063E+02 -0.64752038566E+01  0.38183768743E+02  0.55700862903E+02  0.00000000000E+00 0.  1.
       12    1    3    3    0    0 -0.79553753109E+01  0.63875458215E+02  0.13794687167E+02  0.65830506245E+02  0.00000000000E+00 0. -1.
       -2    1    1    2    0  502  0.47988582374E+02 -0.57400254358E+02 -0.15601521632E+03  0.17302728387E+03  0.00000000000E+00 0.  1.
</event>
<event>
 6   1  0.2604700E+01  0.8040000E+02  0.7957747E-01  0.1297830E+00
        2   -1    0    0  502    0  0.00000000000E+00  0.00000000000E+00  0.19263101131E+04  0.19263101131E+04  0.00000000000E+00 0. -1.
       21   -1    0    0  501  502  0.00000000000E+00  0.00000000000E+00 -0.16925481354E+01  0.16925481354E+01  0.00000000000E+00 0.  1.
       24    2    1    2    0    0  0.19873539719E+01 -0.18250636303E+02  0.10543693506E+04  0.10575608252E+04  0.80019599033E+02 0.  0.
      -11    1    3    3    0    0 -0.23456205498E+02 -0.38710952722E+02  0.43933672174E+03  0.44166218596E+03  0.00000000000E+00 0.  1.
       12    1    3    3    0    0  0.25443559470E+02  0.20460316419E+02  0.61503262886E+03  0.61589863925E+03  0.00000000000E+00 0. -1.
        1    1    1    2  501    0 -0.19873539719E+01  0.18250636303E+02  0.87024821437E+03  0.87044183604E+03  0.00000000000E+00 0. -1.
</event>
<event>
 6   2  0.2604700E+01  0.8040000E+02  0.7957747E-01  0.1297830E+00
        1   -1    0    0  502    0  0.00000000000E+00  0.00000000000E+00  0.43095358931E+03  0.43095358931E+03  0.00000000000E+00 0. -1.
       21   -1    0    0  501  502  0.00000000000E+00  0.00000000000E+00 -0.85361443840E+01  0.85361443840E+01  0.00000000000E+00 0.  1.
      -24    2    1    2    0    0 -0.12515327591E+02  0.11348251993E+02  0.41041412743E+03  0.41876545135E+03  0.81482090050E+02 0.  0.
       11    1    3    3    0    0 -0.34315201351E+02 -0.23746049120E+02  0.21964391447E+03  0.22357293453E+03  0.00000000000E+00 0. -1.
      -12    1    3    3    0    0  0.21799873760E+02  0.35094301113E+02  0.19077021296E+03  0.19519251681E+03  0.00000000000E+00 0.  1.
        2    1    1    2  501    0  0.12515327591E+02 -0.11348251993E+02  0.12003317500E+02  0.20724282352E+02  0.00000000000E+00 0. -1.
</event>
<event>
 6   1  0.2604700E+01  0.8040000E+02  0.7957747E-01  0.1297830E+00
       -1   -1    0    0    0  501  0.00000000000E+00  0.00000000000E+00  0.57679358129E+01  0.57679358129E+01  0.00000000000E+00 0.  1.
        2   -1    0    0  502    0  0.00000000000E+00  0.00000000000E+00 -0.52874570853E+03  0.52874570853E+03  0.00000000000E+00 0. -1.
       24    2    1    2    0    0  0.21264327581E+02 -0.87254215135E+01 -0.34508853163E+03  0.35514562405E+03  0.80709448107E+02 0.  0.
      -11    1    3    3    0    0  0.53111952120E+01  0.14312512082E+02 -0.86587052042E+01  0.17550782675E+02  0.00000000000E+00 0.  1.
       12    1    3    3    0    0  0.15953132369E+02 -0.23037933596E+02 -0.33642982643E+03  0.33759484138E+03  0.00000000000E+00 0. -1.
       21    1    1    2  502  501 -0.21264327581E+02  0.87254215135E+01 -0.17788924109E+03  0.17936802029E+03  0.00000000000E+00 0. -1.
</event>
<event>
 6   1  0.2604700E+01  0.8040000E+02  0.7957747E-01  0.1297830E+00
        2   -1    0    0  502    0  0.00000000000E+00  0.00000000000E+00  0.25590002437E+03  0.25590002437E+03  0.00000000000E+00 0. -1.
       -1   -1    0    0    0  501  0.00000000000E+00  0.00000000000E+00 -0.22293539228E+02  0.22293539228E+02  0.00000000000E+00 0.  1.
       24    2    1    2    0    0  0.23687095049E+02  0.22228293850E+01  0.60818774895E+02  0.10377563948E+03  0.80650111758E+02 0.  0.
      -11    1    3    3    0    0 -0.12007589219E+01  0.10589836866E+02 -0.17878306587E+02  0.20813945163E+02  0.00000000000E+00 0.  1.
       12    1    3    3    0    0  0.24887853971E+02 -0.83670074809E+01  0.78697081482E+02  0.82961694313E+02  0.00000000000E+00 0. -1.
       21    1    1    2  502  501 -0.23687095049E+02 -0.22228293850E+01  0.17278771024E+03  0.17441792412E+03  0.00000000000E+00 0. -1.
</event>
<event>
 6   2  0.2604700E+01  0.8040000E+02  0.7957747E-01  0.1297830E+00
        1   -1    0    0  502    0  0.00000000000E+00  0.00000000000E+00  0.81409041394E+03  0.81409041394E+03  0.00000000000E+00 0. -1.
       21   -1    0    0  501  502  0.00000000000E+00  0.00000000000E+00 -0.32923644103E+01  0.32923644103E+01  0.00000000000E+00 0. -1.
      -24    2    1    2    0    0  0.18997520281E+02  0.41204038027E+01  0.59202519725E+03  0.59774798056E+03  0.80193083145E+02 0.  0.
       11    1    3    3    0    0  0.72811059834E+01  0.41912798489E+02  0.27695846895E+03  0.28020651439E+03  0.00000000000E+00 0. -1.
      -12    1    3    3    0    0  0.11716414297E+02 -0.37792394686E+02  0.31506672830E+03  0.31754146618E+03  0.00000000000E+00 0.  1.
        2    1    1    2  501    0 -0.18997520281E+02 -0.41204038027E+01  0.21877285227E+03  0.21963479778E+03  0.00000000000E+00 0. -1.
</event>
<event>
 6   1  0.2604700E+01  0.8040000E+02  0.7957747E-01  0.1297830E+00
        2   -1    0    0  502    0  0.00000000000E+00  0.00000000000E+00  0.39554030982E+02  0.39554030982E+02  0.00000000000E+00 0. -1.
       21   -1    0    0  501  502  0.00000000000E+00  0.00000000000E+00 -0.62877315157E+02  0.62877315157E+02  0.00000000000E+00 0.  1.
       24    2    1    2    0    0 -0.15998965637E+02 -0.36028849390E+01 -0.18077774088E+02  0.85213243532E+02  0.81642778468E+02 0.  0.
      -11    1    3    3    0    0 -0.11148151163E+02 -0.19070837167E+02 -0.47070521312E+02  0.51996269877E+02  0.00000000000E+00 0.  1.
       12    1    3    3    0    0 -0.48508144736E+01  0.15467952228E+02  0.28992747224E+02  0.33216973655E+02  0.00000000000E+00 0. -1.
        1    1    1    2  501    0  0.15998965637E+02  0.36028849390E+01 -0.52455100880E+01  0.17218102608E+02  0.00000000000E+00 0. -1.
</event>
<event>
 6   2  0.2604700E+01  0.8040000E+02  0.7957747E-01  0.1297830E+00
        1   -1    0    0  502    0  0.00000000000E+00  0.00000000000E+00  0.81571584919E+02  0.81571584919E+02  0.00000000000E+00 0. -1.
       -2   -1    0    0    0  501  0.00000000000E+00  0.00000000000E+00 -0.33234564858E+02  0.33234564858E+02  0.00000000000E+00 0.  1.
      -24    2    1    2    0    0  0.12289896831E+02  0.12498633370E+02  0.51239663113E+02  0.97038686905E+02  0.80521713096E+02 0.  0.
       11    1    3    3    0    0 -0.13496434040E+02  0.37275465639E+02  0.71726525035E+01  0.40287231406E+02  0.00000000000E+00 0. -1.
      -12    1    3    3    0    0  0.25786330872E+02 -0.24776832269E+02  0.44067010610E+02  0.56751455498E+02  0.00000000000E+00 0.  1.
       21    1    1    2  502  501 -0.12289896831E+02 -0.12498633370E+02 -0.29026430521E+01  0.17767462873E+02  0.00000000000E+00 0.  1.
</event>
<event>
 6   1  0.2604700E+01  0.8040000E+02  0.7957747E-01  0.1297830E+00
       -1   -1    0    0    0  501  0.00000000000E+00  0.00000000000E+00  0.35150824277E+02  0.35150824277E+02  0.00000000000E+00 0.  1.
        2   -1    0    0  502    0  0.00000000000E+00  0.00000000000E+00 -0.96702241673E+02  0.96702241673E+02  0.00000000000E+00 0. -1.
       24    2    1    2    0    0  0.13604859722E+02 -0.24093858314E+02 -0.34496668854E+02  0.93154672764E+02  0.81988820453E+02 0.  0.
      -11    1    3    3    0    0  0.29157555013E+02 -0.43896449204E+02 -0.29352251961E+01  0.52779511309E+02  0.00000000000E+00 0.  1.
       12    1    3    3    0    0 -0.15552695291E+02  0.19802590890E+02 -0.31561443658E+02  0.40375161455E+02  0.00000000000E+00 0. -1.
       21    1    1    2  502  501 -0.13604859722E+02  0.24093858314E+02 -0.27054748542E+02  0.38698393186E+02  0.00000000000E+00 0.  1.
</event>
<event>
 6   2  0.2604700E+01  0.8040000E+02  0.7957747E-01  0.1297830E+00
       21   -1    0    0  501  502  0.00000000000E+00  0.00000000000E+00  0.20204276645E+02  0.20204276645E+02  0.00000000000E+00 0.  1.
        1   -1    0    0  502    0  0.00000000000E+00  0.00000000000E+00 -0.16624168277E+03  0.16624168277E+03  0.00000000000E+00 0. -1.
      -24    2    1    2    0    0  0.21831508511E+02  0.20208569496E+02 -0.10044629385E+03  0.13200745683E+03  0.80321290241E+02 0.  0.
       11    1    3    3    0    0 -0.60617693666E+01 -0.13606810546E+02 -0.83807059292E+02  0.85120582283E+02  0.00000000000E+00 0. -1.
      -12    1    3    3    0    0  0.27893277877E+02  0.33815380043E+02 -0.16639234557E+02  0.46886874547E+02  0.00000000000E+00 0.  1.
        2    1    1    2  501    0 -0.21831508511E+02 -0.20208569496E+02 -0.45591112276E+02  0.54438502583E+02  0.00000000000E+00 0. -1.
</event>
<event>
 6   1  0.2604700E+01  0.8040000E+02  0.7957747E-01  0.1297830E+00
        2   -1    0    0  502    0  0.00000000000E+00  0.00000000000E+00  0.70618651803E+02  0.70618651803E+02  0.00000000000E+00 0. -1.
       21   -1    0    0  501  502  0.00000000000E+00  0.00000000000E+00 -0.54797999511E+02  0.54797999511E+02  0.00000000000E+00 0.  1.
       24    2    1    2    0    0 -0.34841900232E+02  0.98851424077E+01  0.11396631470E+02  0.88930407160E+02  0.80418033155E+02 0.  0.
      -11    1    3    3    0    0 -0.57915615486E+02  0.22194285610E+02  0.89392558896E+01  0.62663507138E+02  0.00000000000E+00 0.  1.
       12    1    3    3    0    0  0.23073715254E+02 -0.12309143203E+02  0.24573755801E+01  0.26266900022E+02  0.00000000000E+00 0. -1.
        1    1    1    2  501    0  0.34841900232E+02 -0.98851424077E+01  0.44240208227E+01  0.36486244154E+02  0.00000000000E+00 0. -1.
</event>
<event>
 6   2  0.2604700E+01  0.8040000E+02  0.7957747E-01  0.1297830E+00
       -4   -1    0    0    0  501  0.00000000000E+00  0.00000000000E+00  0.14384374894E+03  0.14384374894E+03  0.00000000000E+00 0.  1.
        3   -1    0    0  502    0  0.00000000000E+00  0.00000000000E+00 -0.57843235200E+02  0.57843235200E+02  0.00000000000E+00 0. -1.
      -24    2    1    2    0    0  0.71774876539E+02 -0.14837355692E+02  0.58620220767E+02  0.12344722142E+03  0.80194177895E+02 0.  0.
       11    1    3    3    0    0  0.76174148278E+02 -0.37876860136E+02  0.48242650038E+02  0.97798316357E+02  0.00000000000E+00 0. -1.
      -12    1    3    3    0    0 -0.43992717384E+01  0.23039504444E+02  0.10377570729E+02  0.25648905066E+02  0.00000000000E+00 0.  1.
       21    1    1    2  502  501 -0.71774876539E+02  0.14837355692E+02  0.27380292969E+02  0.78239762712E+02  0.00000000000E+00 0.  1.
</event>
<event>
 6   1  0.2604700E+01  0.8040000E+02  0.7957747E-01  0.1297830E+00
       21   -1    0    0  501  502  0.00000000000E+00  0.00000000000E+00  0.91561871458E+01  0.91561871458E+01  0.00000000000E+00 0. -1.
        2   -1    0    0  502    0  0.00000000000E+00  0.00000000000E+00 -0.11601228605E+04  0.11601228605E+04  0.00000000000E+00 0. -1.
       24    2    1    2    0    0 -0.10528948806E+02  0.15833996035E+02 -0.18239021615E+03  0.20051595605E+03  0.81110316785E+02 0.  0.
      -11    1    3    3    0    0  0.33478911559E+02 -0.20399351583E+01 -0.53419665485E+02  0.63076616231E+02  0.00000000000E+00 0.  1.
       12    1    3    3    0    0 -0.44007860365E+02  0.17873931194E+02 -0.12897055066E+03  0.13743933982E+03  0.00000000000E+00 0. -1.
        1    1    1    2  501    0  0.10528948806E+02 -0.15833996035E+02 -0.96857645722E+03  0.96876309162E+03  0.00000000000E+00 0. -1.
</event>
<event>
 6   2  0.2604700E+01  0.8040000E+02  0.7957747E-01  0.1297830E+00
       21   -1    0    0  501  502  0.00000000000E+00  0.00000000000E+00  0.10642622458E+02  0.10642622458E+02  0.00000000000E+00 0.  1.
        1   -1    0    0  502    0  0.00000000000E+00  0.00000000000E+00 -0.32690635072E+03  0.32690635072E+03  0.00000000000E+00 0. -1.
      -24    2    1    2    0    0 -0.21995178670E+02  0.18667393882E+02 -0.26976433434E+03  0.28282737676E+03  0.79914138210E+02 0.  0.
       11    1    3    3    0    0 -0.16979389631E+01  0.73390254497E+01 -0.25538210682E+03  0.25549317951E+03  0.00000000000E+00 0. -1.
      -12    1    3    3    0    0 -0.20297239707E+02  0.11328368432E+02 -0.14382227516E+02  0.27334197251E+02  0.00000000000E+00 0.  1.
        2    1    1    2  501    0  0.21995178670E+02 -0.18667393882E+02 -0.46499393924E+02  0.54721596417E+02  0.00000000000E+00 0. -1.
</event>
<event>
 6   2  0.2604700E+01  0.8040000E+02  0.7957747E-01  0.1297830E+00
       21   -1    0    0  501  502  0.00000000000E+00  0.00000000000E+00  0.55303321047E+02  0.55303321047E+02  0.00000000000E+00 0. -1.
       -4   -1    0    0    0  501  0.00000000000E+00  0.00000000000E+00 -0.47106225550E+02  0.47106225550E+02  0.00000000000E+00 0.  1.
      -24    2    1    2    0    0 -0.10074083028E+02  0.18243788824E+02  0.80677548819E+01  0.81568728271E+02  0.78447726438E+02 0.  0.
       11    1    3    3    0    0 -0.40888898596E+02 -0.57451483014E+01  0.99478302731E+01  0.42471968221E+02  0.00000000000E+00 0. -1.
      -12    1    3    3    0    0  0.30814815568E+02  0.23988937126E+02 -0.18800753911E+01  0.39096760050E+02  0.00000000000E+00 0.  1.
       -3    1    1    2    0  502  0.10074083028E+02 -0.18243788824E+02  0.12934061485E+00  0.20840818327E+02  0.00000000000E+00 0.  1.
</event>
<event>
 6   1  0.2604700E+01  0.8040000E+02  0.7957747E-01  0.1297830E+00
       -3   -1    0    0    0  501  0.00000000000E+00  0.00000000000E+00  0.10734680506E+03  0.10734680506E+03  0.00000000000E+00 0.  1.
       21   -1    0    0  501  502  0.00000000000E+00  0.00000000000E+00 -0.30551076877E+02  0.30551076877E+02  0.00000000000E+00 0.  1.
       24    2    1    2    0    0  0.21591697237E+02  0.79870524360E+01  0.77919189889E+02  0.11484887844E+03  0.81171856754E+02 0.  0.
      -11    1    3    3    0    0  0.43560498979E+02  0.28648370027E+02  0.61088027415E+02  0.80311850122E+02  0.00000000000E+00 0.  1.
       12    1    3    3    0    0 -0.21968801742E+02 -0.20661317591E+02  0.16831162474E+02  0.34537028315E+02  0.00000000000E+00 0. -1.
       -4    1    1    2    0  502 -0.21591697237E+02 -0.79870524360E+01 -0.11234617059E+01  0.23049003501E+02  0.00000000000E+00 0.  1.
</event>
<event>
 6   1  0.2604700E+01  0.8040000E+02  0.7957747E-01  0.1297830E+00
       21   -1    0    0  501  502  0.00000000000E+00  0.00000000000E+00  0.15911331759E+02  0.15911331759E+02  0.00000000000E+00 0.  1.
        2   -1    0    0  502    0  0.00000000000E+00  0.00000000000E+00 -0.17856553006E+03  0.17856553006E+03  0.00000000000E+00 0. -1.
       24    2    1    2    0    0 -0.17250439021E+02 -0.19365135770E+01 -0.15571539340E+03  0.17578261819E+03  0.79692643236E+02 0.  0.
      -11    1    3    3    0    0 -0.22280166239E+01  0.23930782919E+02 -0.83984408397E+01  0.25459384080E+02  0.00000000000E+00 0.  1.
       12    1    3    3    0    0 -0.15022422398E+02 -0.25867296496E+02 -0.14731695256E+03  0.15032323411E+03  0.00000000000E+00 0. -1.
        1    1    1    2  501    0  0.17250439021E+02  0.19365135770E+01 -0.69388049020E+01  0.18694243626E+02  0.00000000000E+00 0. -1.
</event>
<event>
 6   2  0.2604700E+01  0.8040000E+02  0.7957747E-01  0.1297830E+00
       21   -1    0    0  501  502  0.00000000000E+00  0.00000000000E+00  0.16780809423E+02  0.16780809423E+02  0.00000000000E+00 0. -1.
       -2   -1    0    0    0  501  0.00000000000E+00  0.00000000000E+00 -0.21662121742E+03  0.21662121742E+03  0.00000000000E+00 0.  1.
      -24    2    1    2    0    0 -0.10721855381E+02  0.21104627948E+02 -0.97407868134E+02  0.12826978285E+03  0.80028000819E+02 0.  0.
       11    1    3    3    0    0  0.13899484467E+02  0.42081390055E+02 -0.30039944945E+02  0.53539119807E+02  0.00000000000E+00 0. -1.
      -12    1    3    3    0    0 -0.24621339847E+02 -0.20976762108E+02 -0.67367923189E+02  0.74730663046E+02  0.00000000000E+00 0.  1.
       -1    1    1    2    0  502  0.10721855381E+02 -0.21104627948E+02 -0.10243253986E+03  0.10513224399E+03  0.00000000000E+00 0.  1.
</event>
<event>
 6   1  0.2604700E+01  0.8040000E+02  0.7957747E-01  0.1297830E+00
        4   -1    0    0  502    0  0.00000000000E+00  0.00000000000E+00  0.84595232334E+02  0.84595232334E+02  0.00000000000E+00 0. -1.
       21   -1    0    0  501  502  0.00000000000E+00  0.00000000000E+00 -0.28689814390E+02  0.28689814390E+02  0.00000000000E+00 0.  1.
       24    2    1    2    0    0 -0.82002976888E+01  0.13250036429E+02  0.54441103484E+02  0.97634086230E+02  0.79534726364E+02 0.  0.
      -11    1    3    3    0    0 -0.30239579672E+02 -0.18153009339E+02  0.58962316186E+01  0.35759327092E+02  0.00000000000E+00 0.  1.
       12    1    3    3    0    0  0.22039281983E+02  0.31403045769E+02  0.48544871866E+02  0.61874759138E+02  0.00000000000E+00 0. -1.
        3    1    1    2  501    0  0.82002976888E+01 -0.13250036429E+02  0.14643144599E+01  0.15650960494E+02  0.00000000000E+00 0. -1.
</event>
<event>
 6   1  0.2604700E+01  0.8040000E+02  0.7957747E-01  0.1297830E+00
       21   -1    0    0  501  502  0.00000000000E+00  0.00000000000E+00  0.11179883935E+03  0.11179883935E+03  0.00000000000E+00 0.  1.
        2   -1    0    0  502    0  0.00000000000E+00  0.00000000000E+00 -0.15753882000E+03  0.15753882000E+03  0.00000000000E+00 0. -1.
       24    2    1    2    0    0 -0.70866564283E+02 -0.45344492527E+02 -0.11247185467E+03  0.16195360119E+03  0.80627897830E+02 0.  0.
      -11    1    3    3    0    0 -0.88402330675E+02 -0.35538474257E+02 -0.10086531981E+03  0.13875074040E+03  0.00000000000E+00 0.  1.
       12    1    3    3    0    0  0.17535766392E+02 -0.98060182701E+01 -0.11606534868E+02  0.23202860791E+02  0.00000000000E+00 0. -1.
        1    1    1    2  501    0  0.70866564283E+02  0.45344492527E+02  0.66731874022E+02  0.10738405816E+03  0.00000000000E+00 0. -1.
</event>
<event>
 6   2  0.2604700E+01  0.8040000E+02  0.7957747E-01  0.1297830E+00
       -4   -1    0    0    0  501  0.00000000000E+00  0.00000000000E+00  0.28805579712E+02  0.28805579712E+02  0.00000000000E+00 0.  1.
       21   -1    0    0  501  502  0.00000000000E+00  0.00000000000E+00 -0.18633220903E+03  0.18633220903E+03  0.00000000000E+00 0.  1.
      -24    2    1    2    0    0  0.21726048219E+02  0.39189856224E+01 -0.35786209935E+02  0.91411844287E+02  0.81167067428E+02 0.  0.
       11    1    3    3    0    0 -0.27391725960E+01 -0.14356777943E+02 -0.53940374911E+02  0.55885455934E+02  0.00000000000E+00 0. -1.
      -12    1    3    3    0    0  0.24465220815E+02  0.18275763565E+02  0.18154164976E+02  0.35526388353E+02  0.00000000000E+00 0.  1.
       -3    1    1    2    0  502 -0.21726048219E+02 -0.39189856224E+01 -0.12174041938E+03  0.12372594445E+03  0.00000000000E+00 0.  1.
</event>
<event>
 6   2  0.2604700E+01  0.8040000E+02  0.7957747E-01  0.1297830E+00
       -2   -1    0    0    0  501  0.00000000000E+00  0.00000000000E+00  0.18560651144E+02  0.18560651144E+02  0.00000000000E+00 0.  1.
        1   -1    0    0  502    0  0.00000000000E+00  0.00000000000E+00 -0.12497853999E+03  0.12497853999E+03  0.00000000000E+00 0. -1.
      -24    2    1    2    0    0  0.12650627670E+02 -0.78730561192E+01 -0.95941071984E+02  0.12532416754E+03  0.79242881590E+02 0.  0.
       11    1    3    3    0    0 -0.58169911166E+01 -0.24056200624E+02 -0.97623230883E+02  0.10071163479E+03  0.00000000000E+00 0. -1.
      -12    1    3    3    0    0  0.18467618787E+02  0.16183144505E+02  0.16821588988E+01  0.24612532748E+02  0.00000000000E+00 0.  1.
       21    1    1    2  502  501 -0.12650627670E+02  0.78730561192E+01 -0.10476816865E+02  0.18215023599E+02  0.00000000000E+00 0.  1.
</event>
<event>
 6   2  0.2604700E+01  0.8040000E+02  0.7957747E-01  0.1297830E+00
       21   -1    0    0  501  502  0.00000000000E+00  0.00000000000E+00  0.84008598578E+01  0.84008598578E+01  0.00000000000E+00 0.  1.
        1   -1    0    0  502    0  0.00000000000E+00  0.00000000000E+00 -0.41633906978E+03  0.41633906978E+03  0.00000000000E+00 0. -1.
      -24    2    1    2    0    0 -0.17249429053E+02  0.63583283966E+01 -0.39141830642E+03  0.40002397620E+03  0.80454457871E+02 0.  0.
       11    1    3    3    0    0 -0.23956054983E+02 -0.29754341367E+02 -0.28268900807E+03  0.28525828416E+03  0.00000000000E+00 0. -1.
      -12    1    3    3    0    0  0.67066259299E+01  0.36112669763E+02 -0.10872929835E+03  0.11476569204E+03  0.00000000000E+00 0.  1.
        2    1    1    2  501    0  0.17249429053E+02 -0.63583283966E+01 -0.16519903504E+02  0.24715953440E+02  0.00000000000E+00 0. -1.
</event>
<event>
 6   1  0.2604700E+01  0.8040000E+02  0.7957747E-01  0.1297830E+00
       -1   -1    0    0    0  501  0.00000000000E+00  0.00000000000E+00  0.81354601412E+03  0.81354601412E+03  0.00000000000E+00 0.  1.
       21   -1    0    0  501  502  0.00000000000E+00  0.00000000000E+00 -0.79779843638E+01  0.79779843638E+01  0.00000000000E+00 0.  1.
       24    2    1    2    0    0 -0.11411048842E+02  0.98215088274E+01  0.80109452957E+03  0.80581774892E+03  0.85808654042E+02 0.  0.
      -11    1    3    3    0    0 -0.31321313894E+02  0.26152415382E+02  0.70949518403E+03  0.71066756623E+03  0.00000000000E+00 0.  1.
       12    1    3    3    0    0  0.19910265052E+02 -0.16330906555E+02  0.91599345534E+02  0.95150182688E+02  0.00000000000E+00 0. -1.
       -2    1    1    2    0  502  0.11411048842E+02 -0.98215088274E+01  0.44735001915E+01  0.15706249561E+02  0.00000000000E+00 0.  1.
</event>
<event>
 6   2  0.2604700E+01  0.8040000E+02  0.7957747E-01  0.1297830E+00
       -2   -1    0    0    0  501  0.00000000000E+00  0.00000000000E+00  0.15954722146E+02  0.15954722146E+02  0.00000000000E+00 0.  1.
        1   -1    0    0  502    0  0.00000000000E+00  0.00000000000E+00 -0.16595086880E+03  0.16595086880E+03  0.00000000000E+00 0. -1.
      -24    2    1    2    0    0 -0.53707307333E+01  0.18637757022E+02 -0.13065668411E+03  0.15451534548E+03  0.80172390196E+02 0.  0.
       11    1    3    3    0    0 -0.37045886279E+02  0.20809949647E+02 -0.10636750637E+03  0.11454037763E+03  0.00000000000E+00 0. -1.
      -12    1    3    3    0    0  0.31675155545E+02 -0.21721926256E+01 -0.24289177738E+02  0.39974967852E+02  0.00000000000E+00 0.  1.
       21    1    1    2  502  501  0.53707307333E+01 -0.18637757022E+02 -0.19339462546E+02  0.27390245471E+02  0.00000000000E+00 0.  1.
</event>
<event>
 6   1  0.2604700E+01  0.8040000E+02  0.7957747E-01  0.1297830E+00
        2   -1    0    0  502    0  0.00000000000E+00  0.00000000000E+00  0.78458870782E+03  0.78458870782E+03  0.00000000000E+00 0. -1.
       21   -1    0    0  501  502  0.00000000000E+00  0.00000000000E+00 -0.55996285985E+01  0.55996285985E+01  0.00000000000E+00 0. -1.
       24    2    1    2    0    0 -0.22454336338E+02 -0.21601027246E+02  0.69552989350E+03  0.70110277485E+03  0.82537667483E+02 0.  0.
      -11    1    3    3    0    0 -0.10775275609E+01 -0.10719792551E+02  0.86832418990E+01  0.13837402497E+02  0.00000000000E+00 0.  1.
       12    1    3    3    0    0 -0.21376808778E+02 -0.10881234695E+02  0.68684665160E+03  0.68726537235E+03  0.00000000000E+00 0. -1.
        1    1    1    2  501    0  0.22454336338E+02  0.21601027246E+02  0.83459185723E+02  0.89085561569E+02  0.00000000000E+00 0. -1.
</event>
<event>
 6   1  0.2604700E+01  0.8040000E+02  0.7957747E-01  0.1297830E+00
       21   -1    0    0  501  502  0.00000000000E+00  0.00000000000E+00  0.56517377099E+03  0.56517377099E+03  0.00000000000E+00 0.  1.
        2   -1    0    0  502    0  0.00000000000E+00  0.00000000000E+00 -0.50043724611E+01  0.50043724611E+01  0.00000000000E+00 0. -1.
       24    2    1    2    0    0  0.15883240384E+02  0.10609530635E-01  0.35055256116E+03  0.35996040883E+03  0.80200500976E+02 0.  0.
      -11    1    3    3    0    0  0.99362293954E+01  0.26003129037E+02  0.31109638839E+03  0.31233932549E+03  0.00000000000E+00 0.  1.
       12    1    3    3    0    0  0.59470109886E+01 -0.25992519506E+02  0.39456172761E+02  0.47621083345E+02  0.00000000000E+00 0. -1.
        1    1    1    2  501    0 -0.15883240384E+02 -0.10609530635E-01  0.20961683738E+03  0.21021773462E+03  0.00000000000E+00 0. -1.
</event>
<event>
 6   1  0.2604700E+01  0.8040000E+02  0.7957747E-01  0.1297830E+00
       21   -1    0    0  501  502  0.00000000000E+00  0.00000000000E+00  0.15924152510E+03  0.15924152510E+03  0.00000000000E+00 0. -1.
       -3   -1    0    0    0  501  0.00000000000E+00  0.00000000000E+00 -0.14333151743E+02  0.14333151743E+02  0.00000000000E+00 0.  1.
       24    2    1    2    0    0  0.14002772262E+02 -0.66737145879E+00  0.13075017600E+03  0.15365038092E+03  0.79475203785E+02 0.  0.
      -11    1    3    3    0    0 -0.14246809882E+02  0.33110226764E+02  0.49471523291E+02  0.61210214221E+02  0.00000000000E+00 0.  1.
       12    1    3    3    0    0  0.28249582144E+02 -0.33777598222E+02  0.81278652709E+02  0.92440166699E+02  0.00000000000E+00 0. -1.
       -4    1    1    2    0  502 -0.14002772262E+02  0.66737145879E+00  0.14158197358E+02  0.19924295926E+02  0.00000000000E+00 0.  1.
</event>
<event>
 6   1  0.2604700E+01  0.8040000E+02  0.7957747E-01  0.1297830E+00
        2   -1    0    0  502    0  0.00000000000E+00  0.00000000000E+00  0.76537193197E+03  0.76537193197E+03  0.00000000000E+00 0. -1.
       -1   -1    0    0    0  501  0.00000000000E+00  0.00000000000E+00 -0.47569674805E+01  0.47569674805E+01  0.00000000000E+00 0.  1.
       24    2    1    2    0    0 -0.70907240089E+01  0.31195970749E+02  0.57425457405E+03  0.58104251157E+03  0.82574920365E+02 0.  0.
      -11    1    3    3    0    0 -0.73433942933E+01 -0.23848893225E+02  0.81813056861E+02  0.85534036621E+02  0.00000000000E+00 0.  1.
       12    1    3    3    0    0  0.25267028444E+00  0.55044863973E+02  0.49244151719E+03  0.49550847495E+03  0.00000000000E+00 0. -1.
       21    1    1    2  502  501  0.70907240089E+01 -0.31195970749E+02  0.18636039044E+03  0.18908638788E+03  0.00000000000E+00 0.  1.
</event>
<event>
 6   1  0.2604700E+01  0.8040000E+02  0.7957747E-01  0.1297830E+00
       -3   -1    0    0    0  501  0.00000000000E+00  0.00000000000E+00  0.50636639527E+02  0.50636639527E+02  0.00000000000E+00 0.  1.
       21   -1    0    0  501  502  0.00000000000E+00  0.00000000000E+00 -0.67469334030E+02  0.67469334030E+02  0.00000000000E+00 0. -1.
       24    2    1    2    0    0  0.24860441963E+02  0.18103942629E+02 -0.97481889694E+01  0.86546750944E+02  0.80308894884E+02 0.  0.
      -11    1    3    3    0    0 -0.17437825915E+02  0.57647009818E+01  0.24585449538E+02  0.30688008717E+02  0.00000000000E+00 0.  1.
       12    1    3    3    0    0  0.42298267879E+02  0.12339241647E+02 -0.34333638507E+02  0.55858742226E+02  0.00000000000E+00 0. -1.
       -4    1    1    2    0  502 -0.24860441963E+02 -0.18103942629E+02 -0.70845055335E+01  0.31559222613E+02  0.00000000000E+00 0.  1.
</event>
<event>
 6   1  0.2604700E+01  0.8040000E+02  0.7957747E-01  0.1297830E+00
       21   -1    0    0  501  502  0.00000000000E+00  0.00000000000E+00  0.23991189490E+02  0.23991189490E+02  0.00000000000E+00 0.  1.
        2   -1    0    0  502    0  0.00000000000E+00  0.00000000000E+00 -0.10811160377E+03  0.10811160377E+03  0.00000000000E+00 0. -1.
       24    2    1    2    0    0  0.65034156276E+01  0.16864532361E+02 -0.65547543279E+02  0.10618641998E+03  0.81562053017E+02 0.  0.
      -11    1    3    3    0    0 -0.30082987014E+02  0.31820259324E+02 -0.38341968131E+02  0.58203277668E+02  0.00000000000E+00 0.  1.
       12    1    3    3    0    0  0.36586402642E+02 -0.14955726963E+02 -0.27205575147E+02  0.47983142314E+02  0.00000000000E+00 0. -1.
        1    1    1    2  501    0 -0.65034156276E+01 -0.16864532361E+02 -0.18572871000E+02  0.25916373276E+02  0.00000000000E+00 0. -1.
</event>
<event>
 6   2  0.2604700E+01  0.8040000E+02  0.7957747E-01  0.1297830E+00
        1   -1    0    0  502    0  0.00000000000E+00  0.00000000000E+00  0.15697874610E+03  0.15697874610E+03  0.00000000000E+00 0. -1.
       -2   -1    0    0    0  501  0.00000000000E+00  0.00000000000E+00 -0.57349908643E+02  0.57349908643E+02  0.00000000000E+00 0.  1.
      -24    2    1    2    0    0 -0.11953075928E+02 -0.23510857608E+02  0.14144518400E+03  0.16488936583E+03  0.80536491330E+02 0.  0.
       11    1    3    3    0    0 -0.16526459377E+02  0.27060494864E+02  0.73658890494E+02  0.80193680491E+02  0.00000000000E+00 0. -1.
      -12    1    3    3    0    0  0.45733834492E+01 -0.50571352472E+02  0.67786293509E+02  0.84695685337E+02  0.00000000000E+00 0.  1.
       21    1    1    2  502  501  0.11953075928E+02  0.23510857608E+02 -0.41816346548E+02  0.49439288913E+02  0.00000000000E+00 0.  1.
</event>
<event>
 6   2  0.2604700E+01  0.8040000E+02  0.7957747E-01  0.1297830E+00
       21   -1    0    0  501  502  0.00000000000E+00  0.00000000000E+00  0.56469322433E+02  0.56469322433E+02  0.00000000000E+00 0. -1.
       -4   -1    0    0    0  501  0.00000000000E+00  0.00000000000E+00 -0.40565104750E+02  0.40565104750E+02  0.00000000000E+00 0.  1.
      -24    2    1    2    0    0  0.14515842828E+02 -0.62810898832E+01  0.13796561853E+02  0.81078111937E+02  0.78314451624E+02 0.  0.
       11    1    3    3    0    0 -0.30126630325E+02 -0.15940110211E+02  0.35558413684E+01  0.34268717164E+02  0.00000000000E+00 0. -1.
      -12    1    3    3    0    0  0.44642473153E+02  0.96590203274E+01  0.10240720484E+02  0.46809394772E+02  0.00000000000E+00 0.  1.
       -3    1    1    2    0  502 -0.14515842828E+02  0.62810898832E+01  0.21076558304E+01  0.15956315246E+02  0.00000000000E+00 0.  1.
</event>
<event>
 6   1  0.2604700E+01  0.8040000E+02  0.7957747E-01  0.1297830E+00
       21   -1    0    0  501  502  0.00000000000E+00  0.00000000000E+00  0.24749651359E+02  0.24749651359E+02  0.00000000000E+00 0.  1.
        4   -1    0    0  502    0  0.00000000000E+00  0.00000000000E+00 -0.11373866071E+03  0.11373866071E+03  0.00000000000E+00 0. -1.
       24    2    1    2    0    0 -0.15885137401E+02  0.13928206167E+02 -0.74341332358E+02  0.11278059030E+03  0.82137052137E+02 0.  0.
      -11    1    3    3    0    0 -0.43762188076E+02  0.25446491962E+02 -0.29053458964E+02  0.58367427014E+02  0.00000000000E+00 0.  1.
       12    1    3    3    0    0  0.27877050675E+02 -0.11518285795E+02 -0.45287873394E+02  0.54413163284E+02  0.00000000000E+00 0. -1.
        3    1    1    2  501    0  0.15885137401E+02 -0.13928206167E+02 -0.14647676988E+02  0.25707721767E+02  0.00000000000E+00 0. -1.
</event>
<event>
 6   1  0.2604700E+01  0.8040000E+02  0.7957747E-01  0.1297830E+00
       21   -1    0    0  501  502  0.00000000000E+00  0.00000000000E+00  0.67196427899E+02  0.67196427899E+02  0.00000000000E+00 0.  1.
       -3   -1    0    0    0  501  0.00000000000E+00  0.00000000000E+00 -0.16287250789E+03  0.16287250789E+03  0.00000000000E+00 0.  1.
       24    2    1    2    0    0 -0.16263061007E+02 -0.14483963365E+02 -0.14915148399E+03  0.17232907797E+03  0.83527681565E+02 0.  0.
      -11    1    3    3    0    0 -0.41296872662E+02 -0.12287727682E+02 -0.35192295489E+02  0.55631983652E+02  0.00000000000E+00 0.  1.
       12    1    3    3    0    0  0.25033811655E+02 -0.21962356831E+01 -0.11395918850E+03  0.11669709431E+03  0.00000000000E+00 0. -1.
       -4    1    1    2    0  502  0.16263061007E+02  0.14483963365E+02  0.53475404002E+02  0.57739857821E+02  0.00000000000E+00 0.  1.
</event>
<event>
 6   1  0.2604700E+01  0.8040000E+02  0.7957747E-01  0.1297830E+00
       21   -1    0    0  501  502  0.00000000000E+00  0.00000000000E+00  0.14540665848E+01  0.14540665848E+01  0.00000000000E+00 0.  1.
        2   -1    0    0  502    0  0.00000000000E+00  0.00000000000E+00 -0.14598916323E+04  0.14598916323E+04  0.00000000000E+00 0. -1.
       24    2    1    2    0    0  0.84308648479E+01 -0.13027983243E+02 -0.12983150324E+04  0.13004729744E+04  0.73261352597E+02 0.  0.
      -11    1    3    3    0    0 -0.14787913213E+02 -0.13236559126E+02 -0.10092819960E+03  0.10286102444E+03  0.00000000000E+00 0.  1.
       12    1    3    3    0    0  0.23218778061E+02  0.20857588327E+00 -0.11973868328E+04  0.11976119499E+04  0.00000000000E+00 0. -1.
        1    1    1    2  501    0 -0.84308648479E+01  0.13027983243E+02 -0.16012253324E+03  0.16087272448E+03  0.00000000000E+00 0. -1.
</event>
<event>
 6   1  0.2604700E+01  0.8040000E+02  0.7957747E-01  0.1297830E+00
       -1   -1    0    0    0  501  0.00000000000E+00  0.00000000000E+00  0.80812283309E+02  0.80812283309E+02  0.00000000000E+00 0.  1.
       21   -1    0    0  501  502  0.00000000000E+00  0.00000000000E+00 -0.34368599337E+02  0.34368599337E+02  0.00000000000E+00 0. -1.
       24    2    1    2    0    0  0.16539536312E+02  0.76480459485E+01  0.50085548905E+02  0.96598308862E+02  0.80564397829E+02 0.  0.
      -11    1    3    3    0    0 -0.13059764185E+02  0.33855031956E+02  0.43286633456E+02  0.56484097455E+02  0.00000000000E+00 0.  1.
       12    1    3    3    0    0  0.29599300498E+02 -0.26206986007E+02  0.67989154491E+01  0.40114211407E+02  0.00000000000E+00 0. -1.
       -2    1    1    2    0  502 -0.16539536312E+02 -0.76480459485E+01 -0.36418649327E+01  0.18582573784E+02  0.00000000000E+00 0.  1.
</event>
<event>
 6   2  0.2604700E+01  0.8040000E+02  0.7957747E-01  0.1297830E+00
        1   -1    0    0  502    0  0.00000000000E+00  0.00000000000E+00  0.99423753621E+02  0.99423753621E+02  0.00000000000E+00 0. -1.
       -2   -1    0    0    0  501  0.00000000000E+00  0.00000000000E+00 -0.57742785656E+02  0.57742785656E+02  0.00000000000E+00 0.  1.
      -24    2    1    2    0    0  0.11945639841E+02 -0.27617889176E+02  0.73323978111E+02  0.11350046314E+03  0.81243481302E+02 0.  0.
       11    1    3    3    0    0  0.91039515254E+01 -0.22233552556E+01  0.84922716952E+02  0.85438241417E+02  0.00000000000E+00 0. -1.
      -12    1    3    3    0    0  0.28416883154E+01 -0.25394533921E+02 -0.11598738841E+02  0.28062221726E+02  0.00000000000E+00 0.  1.
       21    1    1    2  502  501 -0.11945639841E+02  0.27617889176E+02 -0.31643010146E+02  0.43666076133E+02  0.00000000000E+00 0.  1.
</event>
<event>
 6   2  0.2604700E+01  0.8040000E+02  0.7957747E-01  0.1297830E+00
       -2   -1    0    0    0  501  0.00000000000E+00  0.00000000000E+00  0.93410252155E+01  0.93410252155E+01  0.00000000000E+00 0.  1.
        1   -1    0    0  502    0  0.00000000000E+00  0.00000000000E+00 -0.29996113187E+03  0.29996113187E+03  0.00000000000E+00 0. -1.
      -24    2    1    2    0    0  0.17589847965E+02 -0.53309592101E+01 -0.26689588280E+03  0.27929114785E+03  0.80201690361E+02 0.  0.
       11    1    3    3    0    0  0.42847948832E+02 -0.25165772971E+02 -0.17641023264E+03  0.18327529301E+03  0.00000000000E+00 0. -1.
      -12    1    3    3    0    0 -0.25258100867E+02  0.19834813761E+02 -0.90485650157E+02  0.96015854840E+02  0.00000000000E+00 0.  1.
       21    1    1    2  502  501 -0.17589847965E+02  0.53309592101E+01 -0.23724223853E+02  0.30011009230E+02  0.00000000000E+00 0.  1.
</event>
<event>
 6   2  0.2604700E+01  0.8040000E+02  0.7957747E-01  0.1297830E+00
       21   -1    0    0  501  502  0.00000000000E+00  0.00000000000E+00  0.17332054568E+02  0.17332054568E+02  0.00000000000E+00 0.  1.
        1   -1    0    0  502    0  0.00000000000E+00  0.00000000000E+00 -0.30572434496E+03  0.30572434496E+03  0.00000000000E+00 0. -1.
      -24    2    1    2    0    0  0.34885392751E+02 -0.27316757092E+02 -0.24102643959E+03  0.25819716990E+03  0.81294760710E+02 0.  0.
       11    1    3    3    0    0  0.42628218606E+02  0.10013237811E+02 -0.66975257155E+02  0.80019466532E+02  0.00000000000E+00 0. -1.
      -12    1    3    3    0    0 -0.77428258550E+01 -0.37329994903E+02 -0.17405118243E+03  0.17817770337E+03  0.00000000000E+00 0.  1.
        2    1    1    2  501    0 -0.34885392751E+02  0.27316757092E+02 -0.47365850808E+02  0.64859229630E+02  0.00000000000E+00 0. -1.
</event>
<event>
 6   1  0.2604700E+01  0.8040000E+02  0.7957747E-01  0.1297830E+00
       21   -1    0    0  501  502  0.00000000000E+00  0.00000000000E+00  0.47306965278E+02  0.47306965278E+02  0.00000000000E+00 0. -1.
        2   -1    0    0  502    0  0.00000000000E+00  0.00000000000E+00 -0.82827773415E+02  0.82827773415E+02  0.00000000000E+00 0. -1.
       24    2    1    2    0    0  0.17170794823E+02  0.74247853485E+01 -0.58358762700E+02  0.10061295350E+03  0.79795097568E+02 0.  0.
      -11    1    3    3    0    0 -0.27109822612E+02  0.19878452909E+02 -0.13091099720E+02  0.36075923605E+02  0.00000000000E+00 0.  1.
       12    1    3    3    0    0  0.44280617434E+02 -0.12453667560E+02 -0.45267662981E+02  0.64537029896E+02  0.00000000000E+00 0. -1.
        1    1    1    2  501    0 -0.17170794823E+02 -0.74247853485E+01  0.22837954563E+02  0.29521785192E+02  0.00000000000E+00 0. -1.
</event>
<event>
 6   1  0.2604700E+01  0.8040000E+02  0.7957747E-01  0.1297830E+00
       21   -1    0    0  501  502  0.00000000000E+00  0.00000000000E+00  0.19744147998E+02  0.19744147998E+02  0.00000000000E+00 0. -1.
        2   -1    0    0  502    0  0.00000000000E+00  0.00000000000E+00 -0.18518358294E+03  0.18518358294E+03  0.00000000000E+00 0. -1.
       24    2    1    2    0    0  0.22553018612E+02 -0.15396327338E+02 -0.82663200925E+02  0.11776357281E+03  0.79305540474E+02 0.  0.
      -11    1    3    3    0    0  0.29804834094E+02 -0.40665413225E+02 -0.75016144804E+02  0.90384876773E+02  0.00000000000E+00 0.  1.
       12    1    3    3    0    0 -0.72518154822E+01  0.25269085887E+02 -0.76470561210E+01  0.27378696037E+02  0.00000000000E+00 0. -1.
        1    1    1    2  501    0 -0.22553018612E+02  0.15396327338E+02 -0.82776234019E+02  0.87164158129E+02  0.00000000000E+00 0. -1.
</event>
<event>
 6   2  0.2604700E+01  0.8040000E+02  0.7957747E-01  0.1297830E+00
       -2   -1    0    0    0  501  0.00000000000E+00  0.00000000000E+00  0.45891772446E+03  0.45891772446E+03  0.00000000000E+00 0.  1.
        1   -1    0    0  502    0  0.00000000000E+00  0.00000000000E+00 -0.61565397543E+01  0.61565397543E+01  0.00000000000E+00 0. -1.
      -24    2    1    2    0    0  0.61487000624E+01 -0.16724306509E+02  0.27864791257E+03  0.29005157862E+03  0.78535024904E+02 0.  0.
       11    1    3    3    0    0 -0.23287231405E+02  0.21696161857E+02  0.12305326531E+03  0.12710281149E+03  0.00000000000E+00 0. -1.
      -12    1    3    3    0    0  0.29435931467E+02 -0.38420468366E+02  0.15559464726E+03  0.16294876713E+03  0.00000000000E+00 0.  1.
       21    1    1    2  502  501 -0.61487000624E+01  0.16724306509E+02  0.17411327213E+03  0.17502268560E+03  0.00000000000E+00 0. -1.
</event>
<event>
 6   2  0.2604700E+01  0.8040000E+02  0.7957747E-01  0.1297830E+00
       -2   -1    0    0    0  501  0.00000000000E+00  0.00000000000E+00  0.47574174821E+01  0.47574174821E+01  0.00000000000E+00 0.  1.
        1   -1    0    0  502    0  0.00000000000E+00  0.00000000000E+00 -0.70849636893E+03  0.70849636893E+03  0.00000000000E+00 0. -1.
      -24    2    1    2    0    0 -0.14591132805E+01 -0.16318343483E+02 -0.67742606142E+03  0.68225724584E+03  0.79375458860E+02 0.  0.
       11    1    3    3    0    0  0.90788953961E+01  0.21462853529E+02 -0.50020398140E+03  0.50074654610E+03  0.00000000000E+00 0. -1.
      -12    1    3    3    0    0 -0.10538008677E+02 -0.37781197012E+02 -0.17722208002E+03  0.18151069974E+03  0.00000000000E+00 0.  1.
       21    1    1    2  502  501  0.14591132805E+01  0.16318343483E+02 -0.26312890028E+02  0.30996540569E+02  0.00000000000E+00 0.  1.
</event>
<event>
 6   1  0.2604700E+01  0.8040000E+02  0.7957747E-01  0.1297830E+00
       -1   -1    0    0    0  501  0.00000000000E+00  0.00000000000E+00  0.11322370873E+02  0.11322370873E+02  0.00000000000E+00 0.  1.
        2   -1    0    0  502    0  0.00000000000E+00  0.00000000000E+00 -0.30062666566E+03  0.30062666566E+03  0.00000000000E+00 0. -1.
       24    2    1    2    0    0 -0.15680193227E+02  0.13872603320E+01 -0.28335665524E+03  0.29512145895E+03  0.80980791044E+02 0.  0.
      -11    1    3    3    0    0 -0.17041519707E+02 -0.96857591564E+01 -0.10884431693E+02  0.22420931686E+02  0.00000000000E+00 0.  1.
       12    1    3    3    0    0  0.13613264803E+01  0.11073019488E+02 -0.27247222354E+03  0.27270052727E+03  0.00000000000E+00 0. -1.
       21    1    1    2  502  501  0.15680193227E+02 -0.13872603320E+01 -0.59476395493E+01  0.16827577576E+02  0.00000000000E+00 0.  1.
</event>
<event>
 6   2  0.2604700E+01  0.8040000E+02  0.7957747E-01  0.1297830E+00
       21   -1    0    0  501  502  0.00000000000E+00  0.00000000000E+00  0.11508728977E+02  0.11508728977E+02  0.00000000000E+00 0.  1.
       -4   -1    0    0    0  501  0.00000000000E+00  0.00000000000E+00 -0.35418076354E+03  0.35418076354E+03  0.00000000000E+00 0.  1.
      -24    2    1    2    0    0 -0.13910352198E+02 -0.63707907107E+01 -0.34046462275E+03  0.35023124102E+03  0.80694968681E+02 0.  0.
       11    1    3    3    0    0  0.30092281855E+02 -0.57192611165E+01 -0.21714244785E+03  0.21929226624E+03  0.00000000000E+00 0. -1.
      -12    1    3    3    0    0 -0.44002634052E+02 -0.65152959416E+00 -0.12332217490E+03  0.13093897478E+03  0.00000000000E+00 0.  1.
       -3    1    1    2    0  502  0.13910352198E+02  0.63707907107E+01 -0.22074118187E+01  0.15458251501E+02  0.00000000000E+00 0.  1.
</event>
<event>
 6   1  0.2604700E+01  0.8040000E+02  0.7957747E-01  0.1297830E+00
        2   -1    0    0  502    0  0.00000000000E+00  0.00000000000E+00  0.28687044000E+03  0.28687044000E+03  0.00000000000E+00 0. -1.
       -1   -1    0    0    0  501  0.00000000000E+00  0.00000000000E+00 -0.91345306954E+01  0.91345306954E+01  0.00000000000E+00 0.  1.
       24    2    1    2    0    0 -0.33232541465E+01 -0.16588699576E+02  0.24588475515E+03  0.25993940550E+03  0.82601166735E+02 0.  0.
      -11    1    3    3    0    0  0.11733019212E+02 -0.47474674878E+02  0.16404788763E+03  0.17118182710E+03  0.00000000000E+00 0.  1.
       12    1    3    3    0    0 -0.15056273358E+02  0.30885975302E+02  0.81836867518E+02  0.88757578397E+02  0.00000000000E+00 0. -1.
       21    1    1    2  502  501  0.33232541465E+01  0.16588699576E+02  0.31851154160E+02  0.36065565198E+02  0.00000000000E+00 0. -1.
</event>
<event>
 6   2  0.2604700E+01  0.8040000E+02  0.7957747E-01  0.1297830E+00
       -4   -1    0    0    0  501  0.00000000000E+00  0.00000000000E+00  0.88283155687E+02  0.88283155687E+02  0.00000000000E+00 0.  1.
        3   -1    0    0  502    0  0.00000000000E+00  0.00000000000E+00 -0.47005049496E+02  0.47005049496E+02  0.00000000000E+00 0. -1.
      -24    2    1    2    0    0 -0.43879313119E+01 -0.28392086244E+02  0.55100017251E+02  0.10340702378E+03  0.82653712335E+02 0.  0.
       11    1    3    3    0    0  0.17981437886E+02 -0.31778183051E+02 -0.71207674445E+01  0.37200676815E+02  0.00000000000E+00 0. -1.
      -12    1    3    3    0    0 -0.22369369198E+02  0.33860968066E+01  0.62220784695E+02  0.66206346962E+02  0.00000000000E+00 0.  1.
       21    1    1    2  502  501  0.43879313119E+01  0.28392086244E+02 -0.13821911060E+02  0.31881181406E+02  0.00000000000E+00 0. -1.
</event>
<event>
 6   1  0.2604700E+01  0.8040000E+02  0.7957747E-01  0.1297830E+00
        2   -1    0    0  502    0  0.00000000000E+00  0.00000000000E+00  0.20054576610E+02  0.20054576610E+02  0.00000000000E+00 0. -1.
       -1   -1    0    0    0  501  0.00000000000E+00  0.00000000000E+00 -0.26222047982E+03  0.26222047982E+03  0.00000000000E+00 0.  1.
       24    2    1    2    0    0  0.37397773328E+02  0.77032146476E+01 -0.92513367413E+02  0.12782825512E+03  0.79519850918E+02 0.  0.
      -11    1    3    3    0    0  0.57177443901E+02 -0.38480325728E+01 -0.87149598280E+02  0.10430301974E+03  0.00000000000E+00 0.  1.
       12    1    3    3    0    0 -0.19779670574E+02  0.11551247220E+02 -0.53637691338E+01  0.23525235380E+02  0.00000000000E+00 0. -1.
       21    1    1    2  502  501 -0.37397773328E+02 -0.77032146476E+01 -0.14965253579E+03  0.15444680131E+03  0.00000000000E+00 0.  1.
</event>
<event>
 6   1  0.2604700E+01  0.8040000E+02  0.7957747E-01  0.1297830E+00
        4   -1    0    0  502    0  0.00000000000E+00  0.00000000000E+00  0.80678463152E+02  0.80678463152E+02  0.00000000000E+00 0. -1.
       21   -1    0    0  501  502  0.00000000000E+00  0.00000000000E+00 -0.40969768907E+02  0.40969768907E+02  0.00000000000E+00 0. -1.
       24    2    1    2    0    0  0.32120280855E+01  0.20361423391E+02  0.51741787650E+02  0.97779842424E+02  0.80366537242E+02 0.  0.
      -11    1    3    3    0    0  0.28797536142E+02 -0.72363042429E+00 -0.76108152455E+01  0.29795070692E+02  0.00000000000E+00 0.  1.
       12    1    3    3    0    0 -0.25585508057E+02  0.21085053815E+02  0.59352602895E+02  0.67984771731E+02  0.00000000000E+00 0. -1.
        3    1    1    2  501    0 -0.32120280855E+01 -0.20361423391E+02 -0.12033093404E+02  0.23868389636E+02  0.00000000000E+00 0. -1.
</event>
<event>
 6   1  0.2604700E+01  0.8040000E+02  0.7957747E-01  0.1297830E+00
       21   -1    0    0  501  502  0.00000000000E+00  0.00000000000E+00  0.12764126475E+03  0.12764126475E+03  0.00000000000E+00 0.  1.
        2   -1    0    0  502    0  0.00000000000E+00  0.00000000000E+00 -0.25422279758E+02  0.25422279758E+02  0.00000000000E+00 0. -1.
       24    2    1    2    0    0 -0.19532362827E+02 -0.14600837990E+02  0.59296235011E+02  0.10369695526E+03  0.81500413353E+02 0.  0.
      -11    1    3    3    0    0 -0.18876981143E+01 -0.47059042545E+02  0.41128498387E+02  0.62527356165E+02  0.00000000000E+00 0.  1.
       12    1    3    3    0    0 -0.17644664713E+02  0.32458204556E+02  0.18167736623E+02  0.41169599097E+02  0.00000000000E+00 0. -1.
        1    1    1    2  501    0  0.19532362827E+02  0.14600837990E+02  0.42922749977E+02  0.49366589240E+02  0.00000000000E+00 0. -1.
</event>
<event>
 6   2  0.2604700E+01  0.8040000E+02  0.7957747E-01  0.1297830E+00
        1   -1    0    0  502    0  0.00000000000E+00  0.00000000000E+00  0.35309512544E+03  0.35309512544E+03  0.00000000000E+00 0. -1.
       21   -1    0    0  501  502  0.00000000000E+00  0.00000000000E+00 -0.91753230595E+01  0.91753230595E+01  0.00000000000E+00 0. -1.
      -24    2    1    2    0    0 -0.16016709022E+01  0.14627700669E+02  0.33630107397E+03  0.34569999289E+03  0.78699032738E+02 0.  0.
       11    1    3    3    0    0  0.16002330388E+02  0.42247110090E+02  0.15438518489E+03  0.16085918750E+03  0.00000000000E+00 0. -1.
      -12    1    3    3    0    0 -0.17604001290E+02 -0.27619409421E+02  0.18191588908E+03  0.18484080539E+03  0.00000000000E+00 0.  1.
        2    1    1    2  501    0  0.16016709022E+01 -0.14627700669E+02  0.76187284102E+01  0.16570455610E+02  0.00000000000E+00 0. -1.
</event>
<event>
 6   1  0.2604700E+01  0.8040000E+02  0.7957747E-01  0.1297830E+00
        2   -1    0    0  502    0  0.00000000000E+00  0.00000000000E+00  0.52239288427E+02  0.52239288427E+02  0.00000000000E+00 0. -1.
       21   -1    0    0  501  502  0.00000000000E+00  0.00000000000E+00 -0.50041382254E+02  0.50041382254E+02  0.00000000000E+00 0.  1.
       24    2    1    2    0    0  0.50454897833E+01 -0.14238719076E+02 -0.11096514673E+02  0.82157556765E+02  0.79990833272E+02 0.  0.
      -11    1    3    3    0    0  0.97639769145E+01  0.38693762976E+01 -0.43494012549E+02  0.44744121912E+02  0.00000000000E+00 0.  1.
       12    1    3    3    0    0 -0.47184871312E+01 -0.18108095373E+02  0.32397497876E+02  0.37413434852E+02  0.00000000000E+00 0. -1.
        1    1    1    2  501    0 -0.50454897833E+01  0.14238719076E+02  0.13294420846E+02  0.20123113916E+02  0.00000000000E+00 0. -1.
</event>
<event>
 6   1  0.2604700E+01  0.8040000E+02  0.7957747E-01  0.1297830E+00
       -3   -1    0    0    0  501  0.00000000000E+00  0.00000000000E+00  0.53931491141E+02  0.53931491141E+02  0.00000000000E+00 0.  1.
        4   -1    0    0  502    0  0.00000000000E+00  0.00000000000E+00 -0.77742446867E+02  0.77742446867E+02  0.00000000000E+00 0. -1.
       24    2    1    2    0    0 -0.93168851596E+01 -0.16049452482E+02 -0.50786253687E+02  0.98931672140E+02  0.82848312685E+02 0.  0.
      -11    1    3    3    0    0  0.27414366995E+02 -0.26152517969E+02 -0.47406440178E+02  0.60686673037E+02  0.00000000000E+00 0.  1.
       12    1    3    3    0    0 -0.36731252155E+02  0.10103065487E+02 -0.33798135085E+01  0.38244999104E+02  0.00000000000E+00 0. -1.
       21    1    1    2  502  501  0.93168851596E+01  0.16049452482E+02  0.26975297961E+02  0.32742265867E+02  0.00000000000E+00 0. -1.
</event>
<event>
 6   1  0.2604700E+01  0.8040000E+02  0.7957747E-01  0.1297830E+00
        4   -1    0    0  502    0  0.00000000000E+00  0.00000000000E+00  0.18840810772E+03  0.18840810772E+03  0.00000000000E+00 0. -1.
       21   -1    0    0  501  502  0.00000000000E+00  0.00000000000E+00 -0.45843981401E+02  0.45843981401E+02  0.00000000000E+00 0. -1.
       24    2    1    2    0    0 -0.31911089907E+02  0.25972372749E+02  0.16491732000E+03  0.18742744739E+03  0.78983819825E+02 0.  0.
      -11    1    3    3    0    0 -0.17236106684E+02 -0.14169078862E+02  0.63461577001E+01  0.23197411212E+02  0.00000000000E+00 0.  1.
       12    1    3    3    0    0 -0.14674983224E+02  0.40141451611E+02  0.15857116230E+03  0.16423003618E+03  0.00000000000E+00 0. -1.
        3    1    1    2  501    0  0.31911089907E+02 -0.25972372749E+02 -0.22353193682E+02  0.46824641729E+02  0.00000000000E+00 0. -1.
</event>
<event>
 6   1  0.2604700E+01  0.8040000E+02  0.7957747E-01  0.1297830E+00
        2   -1    0    0  502    0  0.00000000000E+00  0.00000000000E+00  0.24761364026E+03  0.24761364026E+03  0.00000000000E+00 0. -1.
       21   -1    0    0  501  502  0.00000000000E+00  0.00000000000E+00 -0.27516591068E+02  0.27516591068E+02  0.00000000000E+00 0. -1.
       24    2    1    2    0    0 -0.11355010524E+02  0.43211309770E+02  0.20948879526E+03  0.22920977175E+03  0.81580699755E+02 0.  0.
      -11    1    3    3    0    0  0.59729143201E+01 -0.65140272606E-01 -0.61596657196E+01  0.85802931481E+01  0.00000000000E+00 0.  1.
       12    1    3    3    0    0 -0.17327924844E+02  0.43276450043E+02  0.21564846098E+03  0.22062947860E+03  0.00000000000E+00 0. -1.
        1    1    1    2  501    0  0.11355010524E+02 -0.43211309770E+02  0.10608253934E+02  0.45920459575E+02  0.00000000000E+00 0. -1.
</event>
<event>
 6   1  0.2604700E+01  0.8040000E+02  0.7957747E-01  0.1297830E+00
        2   -1    0    0  502    0  0.00000000000E+00  0.00000000000E+00  0.49494910066E+02  0.49494910066E+02  0.00000000000E+00 0. -1.
       -1   -1    0    0    0  501  0.00000000000E+00  0.00000000000E+00 -0.20665455042E+03  0.20665455042E+03  0.00000000000E+00 0.  1.
       24    2    1    2    0    0 -0.33119945246E+02  0.11644765531E+02  0.57638297537E+01  0.89486361843E+02  0.82110023049E+02 0.  0.
      -11    1    3    3    0    0 -0.40569437262E+02 -0.27490611942E+02  0.76693192385E+01  0.49602736238E+02  0.00000000000E+00 0.  1.
       12    1    3    3    0    0  0.74494920158E+01  0.39135377473E+02 -0.19054894847E+01  0.39883625605E+02  0.00000000000E+00 0. -1.
       21    1    1    2  502  501  0.33119945246E+02 -0.11644765531E+02 -0.16292347010E+03  0.16666309864E+03  0.00000000000E+00 0.  1.
</event>
<event>
 6   2  0.2604700E+01  0.8040000E+02  0.7957747E-01  0.1297830E+00
       -2   -1    0    0    0  501  0.00000000000E+00  0.00000000000E+00  0.45581205275E+01  0.45581205275E+01  0.00000000000E+00 0.  1.
        1   -1    0    0  502    0  0.00000000000E+00  0.00000000000E+00 -0.61517589281E+03  0.61517589281E+03  0.00000000000E+00 0. -1.
      -24    2    1    2    0    0 -0.22016651977E+02 -0.12950694701E+01 -0.51294514242E+03  0.51960233606E+03  0.79921576200E+02 0.  0.
       11    1    3    3    0    0 -0.42792707384E+02 -0.57060816176E+01 -0.46693554971E+03  0.46892705483E+03  0.00000000000E+00 0. -1.
      -12    1    3    3    0    0  0.20776055407E+02  0.44110121475E+01 -0.46009592712E+02  0.50675281232E+02  0.00000000000E+00 0.  1.
       21    1    1    2  502  501  0.22016651977E+02  0.12950694701E+01 -0.97672629867E+02  0.10013167728E+03  0.00000000000E+00 0.  1.
</event>
<event>
 6   1  0.2604700E+01  0.8040000E+02  0.7957747E-01  0.1297830E+00
        2   -1    0    0  502    0  0.00000000000E+00  0.00000000000E+00  0.45537669871E+03  0.45537669871E+03  0.00000000000E+00 0. -1.
       21   -1    0    0  501  502  0.00000000000E+00  0.00000000000E+00 -0.50803837947E+01  0.50803837947E+01  0.00000000000E+00 0.  1.
       24    2    1    2    0    0 -0.11882729151E+02 -0.16567762691E+01  0.40258403713E+03  0.41125946456E+03  0.83165474092E+02 0.  0.
      -11    1    3    3    0    0 -0.15207028922E+02 -0.12288623943E+02  0.18191972717E+02  0.26706027005E+02  0.00000000000E+00 0.  1.
       12    1    3    3    0    0  0.33242997710E+01  0.10631847674E+02  0.38439206441E+03  0.38455343756E+03  0.00000000000E+00 0. -1.
        1    1    1    2  501    0  0.11882729151E+02  0.16567762691E+01  0.47712277782E+02  0.49197617938E+02  0.00000000000E+00 0. -1.
</event>
<event>
 6   2  0.2604700E+01  0.8040000E+02  0.7957747E-01  0.1297830E+00
       -2   -1    0    0    0  501  0.00000000000E+00  0.00000000000E+00  0.28334878255E+02  0.28334878255E+02  0.00000000000E+00 0.  1.
        1   -1    0    0  502    0  0.00000000000E+00  0.00000000000E+00 -0.22902066164E+03  0.22902066164E+03  0.00000000000E+00 0. -1.
      -24    2    1    2    0    0 -0.15408007379E+02 -0.61093784207E+00 -0.33131697172E+02  0.89093388050E+02  0.81253569155E+02 0.  0.
       11    1    3    3    0    0  0.89693150376E+01  0.60767268734E+01 -0.54762400510E+02  0.55823791803E+02  0.00000000000E+00 0. -1.
      -12    1    3    3    0    0 -0.24377322416E+02 -0.66876647154E+01  0.21630703338E+02  0.33269596247E+02  0.00000000000E+00 0.  1.
       21    1    1    2  502  501  0.15408007379E+02  0.61093784207E+00 -0.16755408621E+03  0.16826215184E+03  0.00000000000E+00 0.  1.
</event>
<event>
 6   1  0.2604700E+01  0.8040000E+02  0.7957747E-01  0.1297830E+00
       -1   -1    0    0    0  501  0.00000000000E+00  0.00000000000E+00  0.98703626387E+02  0.98703626387E+02  0.00000000000E+00 0.  1.
       21   -1    0    0  501  502  0.00000000000E+00  0.00000000000E+00 -0.41597441252E+02  0.41597441252E+02  0.00000000000E+00 0.  1.
       24    2    1    2    0    0 -0.18423739351E+01 -0.20644876233E+02  0.75821613084E+02  0.11237487027E+03  0.80309334454E+02 0.  0.
      -11    1    3    3    0    0  0.65702722323E+00 -0.21339909258E+02  0.92787342138E+02  0.95211943961E+02  0.00000000000E+00 0.  1.
       12    1    3    3    0    0 -0.24994011584E+01  0.69503302471E+00 -0.16965729054E+02  0.17162926306E+02  0.00000000000E+00 0. -1.
       -2    1    1    2    0  502  0.18423739351E+01  0.20644876233E+02 -0.18715427949E+02  0.27926197372E+02  0.00000000000E+00 0.  1.
</event>
<event>
 6   1  0.2604700E+01  0.8040000E+02  0.7957747E-01  0.1297830E+00
        2   -1    0    0  502    0  0.00000000000E+00  0.00000000000E+00  0.11589067698E+04  0.11589067698E+04  0.00000000000E+00 0. -1.
       -1   -1    0    0    0  501  0.00000000000E+00  0.00000000000E+00 -0.21415062719E+01  0.21415062719E+01  0.00000000000E+00 0.  1.
       24    2    1    2    0    0 -0.15664410268E+02 -0.52263420249E+01  0.87399468914E+03  0.87779593956E+03  0.79914369560E+02 0.  0.
      -11    1    3    3    0    0  0.73203992235E+01  0.33072651714E+02  0.26329462933E+03  0.26546459344E+03  0.00000000000E+00 0.  1.
       12    1    3    3    0    0 -0.22984809491E+02 -0.38298993739E+02  0.61070005981E+03  0.61233134612E+03  0.00000000000E+00 0. -1.
       21    1    1    2  502  501  0.15664410268E+02  0.52263420249E+01  0.28277057443E+03  0.28325233655E+03  0.00000000000E+00 0. -1.
</event>
<event>
 6   1  0.2604700E+01  0.8040000E+02  0.7957747E-01  0.1297830E+00
        4   -1    0    0  502    0  0.00000000000E+00  0.00000000000E+00  0.10172448555E+02  0.10172448555E+02  0.00000000000E+00 0. -1.
       -3   -1    0    0    0  501  0.00000000000E+00  0.00000000000E+00 -0.22083474237E+03  0.22083474237E+03  0.00000000000E+00 0.  1.
       24    2    1    2    0    0 -0.41502300116E+01 -0.12326731111E+02 -0.18191865988E+03  0.19945771865E+03  0.80745340472E+02 0.  0.
      -11    1    3    3    0    0  0.12151257365E+01 -0.26626033037E+02 -0.18224272803E+03  0.18418152482E+03  0.00000000000E+00 0.  1.
       12    1    3    3    0    0 -0.53653557480E+01  0.14299301926E+02  0.32406814549E+00  0.15276193834E+02  0.00000000000E+00 0. -1.
       21    1    1    2  502  501  0.41502300116E+01  0.12326731111E+02 -0.28743633936E+02  0.31549472276E+02  0.00000000000E+00 0. -1.
</event>
<event>
 6   2  0.2604700E+01  0.8040000E+02  0.7957747E-01  0.1297830E+00
        1   -1    0    0  502    0  0.00000000000E+00  0.00000000000E+00  0.10244589730E+02  0.10244589730E+02  0.00000000000E+00 0. -1.
       -2   -1    0    0    0  501  0.00000000000E+00  0.00000000000E+00 -0.41961271080E+03  0.41961271080E+03  0.00000000000E+00 0.  1.
      -24    2    1    2    0    0 -0.17568953943E+02  0.39130157079E+01 -0.40219101603E+03  0.41047971886E+03  0.80075004765E+02 0.  0.
       11    1    3    3    0    0 -0.27764478615E+02 -0.24452626157E+01 -0.43985522404E+02  0.52072754519E+02  0.00000000000E+00 0. -1.
      -12    1    3    3    0    0  0.10195524672E+02  0.63582783235E+01 -0.35820549362E+03  0.35840696434E+03  0.00000000000E+00 0.  1.
       21    1    1    2  502  501  0.17568953943E+02 -0.39130157079E+01 -0.71771050431E+01  0.19377581670E+02  0.00000000000E+00 0. -1.
</event>
<event>
 6   1  0.2604700E+01  0.8040000E+02  0.7957747E-01  0.1297830E+00
        2   -1    0    0  502    0  0.00000000000E+00  0.00000000000E+00  0.47719119472E+03  0.47719119472E+03  0.00000000000E+00 0. -1.
       -1   -1    0    0    0  501  0.00000000000E+00  0.00000000000E+00 -0.55947120444E+01  0.55947120444E+01  0.00000000000E+00 0.  1.
       24    2    1    2    0    0  0.13982306515E+02  0.47929664003E+00  0.31130856217E+03  0.32188857279E+03  0.80644266940E+02 0.  0.
      -11    1    3    3    0    0  0.22309236312E+02  0.37606890572E+02  0.15967250553E+03  0.16555147014E+03  0.00000000000E+00 0.  1.
       12    1    3    3    0    0 -0.83269297967E+01 -0.37127593932E+02  0.15163605665E+03  0.15633710265E+03  0.00000000000E+00 0. -1.
       21    1    1    2  502  501 -0.13982306515E+02 -0.47929664003E+00  0.16028792051E+03  0.16089733398E+03  0.00000000000E+00 0. -1.
</event>
<event>
 6   1  0.2604700E+01  0.8040000E+02  0.7957747E-01  0.1297830E+00
       21   -1    0    0  501  502  0.00000000000E+00  0.00000000000E+00  0.46404975889E+01  0.46404975889E+01  0.00000000000E+00 0. -1.
        2   -1    0    0  502    0  0.00000000000E+00  0.00000000000E+00 -0.10801733659E+04  0.10801733659E+04  0.00000000000E+00 0. -1.
       24    2    1    2    0    0  0.94119394442E+01 -0.45943453618E+02 -0.75370027436E+03  0.75958224747E+03  0.81863920957E+02 0.  0.
      -11    1    3    3    0    0 -0.15006853521E+02 -0.39701084649E+02 -0.68650292488E+03  0.68781367219E+03  0.00000000000E+00 0.  1.
       12    1    3    3    0    0  0.24418792966E+02 -0.62423689691E+01 -0.67197349481E+02  0.71768575279E+02  0.00000000000E+00 0. -1.
        1    1    1    2  501    0 -0.94119394442E+01  0.45943453618E+02 -0.32183259398E+03  0.32523161606E+03  0.00000000000E+00 0. -1.
</event>
<event>
 6   2  0.2604700E+01  0.8040000E+02  0.7957747E-01  0.1297830E+00
       -2   -1    0    0    0  501  0.00000000000E+00  0.00000000000E+00  0.17458433932E+02  0.17458433932E+02  0.00000000000E+00 0.  1.
        1   -1    0    0  502    0  0.00000000000E+00  0.00000000000E+00 -0.18695149707E+03  0.18695149707E+03  0.00000000000E+00 0. -1.
      -24    2    1    2    0    0 -0.28280698401E+02 -0.46282859886E+01 -0.13093743065E+03  0.15637082475E+03  0.80535738359E+02 0.  0.
       11    1    3    3    0    0 -0.48583605605E+02 -0.10751978146E+02 -0.12470782068E+03  0.13426843377E+03  0.00000000000E+00 0. -1.
      -12    1    3    3    0    0  0.20302907204E+02  0.61236921572E+01 -0.62296099708E+01  0.22102390978E+02  0.00000000000E+00 0.  1.
       21    1    1    2  502  501  0.28280698401E+02  0.46282859886E+01 -0.38555632484E+02  0.48039106252E+02  0.00000000000E+00 0. -1.
</event>
<event>
 6   2  0.2604700E+01  0.8040000E+02  0.7957747E-01  0.1297830E+00
        1   -1    0    0  502    0  0.00000000000E+00  0.00000000000E+00  0.44697039764E+03  0.44697039764E+03  0.00000000000E+00 0. -1.
       -2   -1    0    0    0  501  0.00000000000E+00  0.00000000000E+00 -0.59639132150E+01  0.59639132150E+01  0.00000000000E+00 0.  1.
      -24    2    1    2    0    0  0.13505850531E+02 -0.11851439237E+02  0.31081586994E+03  0.32150957684E+03  0.80243618958E+02 0.  0.
       11    1    3    3    0    0  0.32713187359E+02  0.11804053626E+02  0.25956481720E+03  0.26188429246E+03  0.00000000000E+00 0. -1.
      -12    1    3    3    0    0 -0.19207336828E+02 -0.23655492863E+02  0.51251052741E+02  0.59625284382E+02  0.00000000000E+00 0.  1.
       21    1    1    2  502  501 -0.13505850531E+02  0.11851439237E+02  0.13019061449E+03  0.13142473402E+03  0.00000000000E+00 0. -1.
</event>
<event>
 6   1  0.2604700E+01  0.8040000E+02  0.7957747E-01  0.1297830E+00
        2   -1    0    0  502    0  0.00000000000E+00  0.00000000000E+00  0.20202873342E+03  0.20202873342E+03  0.00000000000E+00 0. -1.
       -1   -1    0    0    0  501  0.00000000000E+00  0.00000000000E+00 -0.11268624246E+02  0.11268624246E+02  0.00000000000E+00 0.  1.
       24    2    1    2    0    0  0.12130087957E+02  0.54315307100E+01  0.15465082368E+03  0.17481981800E+03  0.80426680536E+02 0.  0.
      -11    1    3    3    0    0 -0.15336960569E+02  0.25920659709E+02  0.20676222657E+02  0.36532302728E+02  0.00000000000E+00 0.  1.
       12    1    3    3    0    0  0.27467048526E+02 -0.20489128999E+02  0.13397460102E+03  0.13828751527E+03  0.00000000000E+00 0. -1.
       21    1    1    2  502  501 -0.12130087957E+02 -0.54315307100E+01  0.36109285503E+02  0.38477539672E+02  0.00000000000E+00 0.  1.
</event>
<event>
 6   1  0.2604700E+01  0.8040000E+02  0.7957747E-01  0.1297830E+00
        2   -1    0    0  502    0  0.00000000000E+00  0.00000000000E+00  0.68947046367E+03  0.68947046367E+03  0.00000000000E+00 0. -1.
       -1   -1    0    0    0  501  0.00000000000E+00  0.00000000000E+00 -0.10785365790E+02  0.10785365790E+02  0.00000000000E+00 0.  1.
       24    2    1    2    0    0  0.17821094073E+02  0.22241934963E+02  0.17196144431E+03  0.19273129197E+03  0.82233311443E+02 0.  0.
      -11    1    3    3    0    0 -0.20833386381E+02  0.32174782256E+02  0.42379464924E+02  0.57142502995E+02  0.00000000000E+00 0.  1.
       12    1    3    3    0    0  0.38654480453E+02 -0.99328472927E+01  0.12958197938E+03  0.13558878897E+03  0.00000000000E+00 0. -1.
       21    1    1    2  502  501 -0.17821094073E+02 -0.22241934963E+02  0.50672365357E+03  0.50752453749E+03  0.00000000000E+00 0. -1.
</event>
<event>
 6   2  0.2604700E+01  0.8040000E+02  0.7957747E-01  0.1297830E+00
       21   -1    0    0  501  502  0.00000000000E+00  0.00000000000E+00  0.10359016317E+02  0.10359016317E+02  0.00000000000E+00 0.  1.
        1   -1    0    0  502    0  0.00000000000E+00  0.00000000000E+00 -0.29618668431E+03  0.29618668431E+03  0.00000000000E+00 0. -1.
      -24    2    1    2    0    0 -0.24967500306E+02  0.94562156403E+01 -0.20830824252E+03  0.22455754653E+03  0.79504538979E+02 0.  0.
       11    1    3    3    0    0  0.22769723668E+02  0.19297751440E+02 -0.12036511653E+03  0.12401058344E+03  0.00000000000E+00 0. -1.
      -12    1    3    3    0    0 -0.47737223974E+02 -0.98415357995E+01 -0.87943125983E+02  0.10054696309E+03  0.00000000000E+00 0.  1.
        2    1    1    2  501    0  0.24967500306E+02 -0.94562156403E+01 -0.77519425473E+02  0.81988154092E+02  0.00000000000E+00 0. -1.
</event>
<event>
 6   1  0.2604700E+01  0.8040000E+02  0.7957747E-01  0.1297830E+00
       21   -1    0    0  501  502  0.00000000000E+00  0.00000000000E+00  0.15031338990E+02  0.15031338990E+02  0.00000000000E+00 0. -1.
        2   -1    0    0  502    0  0.00000000000E+00  0.00000000000E+00 -0.55397803523E+03  0.55397803523E+03  0.00000000000E+00 0. -1.
       24    2    1    2    0    0  0.45619294057E+02  0.26982512110E+02 -0.48386794789E+03  0.49257087299E+03  0.75423457743E+02 0.  0.
      -11    1    3    3    0    0  0.41614439781E+02 -0.16247098580E+01 -0.11050478642E+03  0.11809195190E+03  0.00000000000E+00 0.  1.
       12    1    3    3    0    0  0.40048542760E+01  0.28607221968E+02 -0.37336316146E+03  0.37447892110E+03  0.00000000000E+00 0. -1.
        1    1    1    2  501    0 -0.45619294057E+02 -0.26982512110E+02 -0.55078748357E+02  0.76438501232E+02  0.00000000000E+00 0. -1.
</event>
<event>
 6   2  0.2604700E+01  0.8040000E+02  0.7957747E-01  0.1297830E+00
       -4   -1    0    0    0  501  0.00000000000E+00  0.00000000000E+00  0.45430386125E+03  0.45430386125E+03  0.00000000000E+00 0.  1.
        3   -1    0    0  502    0  0.00000000000E+00  0.00000000000E+00 -0.10104058152E+02  0.10104058152E+02  0.00000000000E+00 0. -1.
      -24    2    1    2    0    0 -0.23648855163E+02 -0.24616509232E+02  0.20312447719E+03  0.22092783061E+03  0.79901891257E+02 0.  0.
       11    1    3    3    0    0 -0.13018337147E+02 -0.53175837302E+02  0.10870429045E+03  0.12171182990E+03  0.00000000000E+00 0. -1.
      -12    1    3    3    0    0 -0.10630518016E+02  0.28559328069E+02  0.94420186738E+02  0.99216000709E+02  0.00000000000E+00 0.  1.
       21    1    1    2  502  501  0.23648855163E+02  0.24616509232E+02  0.24107532590E+03  0.24348008879E+03  0.00000000000E+00 0.  1.
</event>
<event>
 6   1  0.2604700E+01  0.8040000E+02  0.7957747E-01  0.1297830E+00
        4   -1    0    0  502    0  0.00000000000E+00  0.00000000000E+00  0.87285404415E+01  0.87285404415E+01  0.00000000000E+00 0. -1.
       -3   -1    0    0    0  501  0.00000000000E+00  0.00000000000E+00 -0.27106477443E+03  0.27106477443E+03  0.00000000000E+00 0.  1.
       24    2    1    2    0    0  0.11036664184E+02  0.10103199735E+02 -0.22120324346E+03  0.23602339928E+03  0.80946201199E+02 0.  0.
      -11    1    3    3    0    0  0.36345961856E+01  0.34282123315E+02 -0.20021496357E+03  0.20316128053E+03  0.00000000000E+00 0.  1.
       12    1    3    3    0    0  0.74020679986E+01 -0.24178923579E+02 -0.20988279893E+02  0.32862118754E+02  0.00000000000E+00 0. -1.
       21    1    1    2  502  501 -0.11036664184E+02 -0.10103199735E+02 -0.41132990532E+02  0.43769915596E+02  0.00000000000E+00 0. -1.
</event>
<event>
 6   1  0.2604700E+01  0.8040000E+02  0.7957747E-01  0.1297830E+00
        2   -1    0    0  502    0  0.00000000000E+00  0.00000000000E+00  0.74481397764E+03  0.74481397764E+03  0.00000000000E+00 0. -1.
       -1   -1    0    0    0  501  0.00000000000E+00  0.00000000000E+00 -0.57429991680E+01  0.57429991680E+01  0.00000000000E+00 0.  1.
       24    2    1    2    0    0  0.17182092664E+02 -0.22194159370E+02  0.33504336466E+03  0.34555559688E+03  0.79792288576E+02 0.  0.
      -11    1    3    3    0    0  0.22546060002E+02  0.17147450645E+02  0.47659195895E+02  0.55441490227E+02  0.00000000000E+00 0.  1.
       12    1    3    3    0    0 -0.53639673380E+01 -0.39341610015E+02  0.28738416876E+03  0.29011410665E+03  0.00000000000E+00 0. -1.
       21    1    1    2  502  501 -0.17182092664E+02  0.22194159370E+02  0.40402761381E+03  0.40500137993E+03  0.00000000000E+00 0. -1.
</event>
<event>
 6   1  0.2604700E+01  0.8040000E+02  0.7957747E-01  0.1297830E+00
       -1   -1    0    0    0  501  0.00000000000E+00  0.00000000000E+00  0.44534130735E+02  0.44534130735E+02  0.00000000000E+00 0.  1.
       21   -1    0    0  501  502  0.00000000000E+00  0.00000000000E+00 -0.49285442659E+03  0.49285442659E+03  0.00000000000E+00 0. -1.
       24    2    1    2    0    0 -0.63354710041E+02  0.11920350215E+03 -0.28932614164E+03  0.32881618312E+03  0.78658577620E+02 0.  0.
      -11    1    3    3    0    0 -0.29919071731E+02  0.23364881020E+02 -0.24441193778E+02  0.45149091593E+02  0.00000000000E+00 0.  1.
       12    1    3    3    0    0 -0.33435638310E+02  0.95838621128E+02 -0.26488494786E+03  0.28366709152E+03  0.00000000000E+00 0. -1.
       -2    1    1    2    0  502  0.63354710041E+02 -0.11920350215E+03 -0.15899415421E+03  0.20857237421E+03  0.00000000000E+00 0.  1.
</event>
<event>
 6   2  0.2604700E+01  0.8040000E+02  0.7957747E-01  0.1297830E+00
        1   -1    0    0  502    0  0.00000000000E+00  0.00000000000E+00  0.11678572736E+04  0.11678572736E+04  0.00000000000E+00 0. -1.
       21   -1    0    0  501  502  0.00000000000E+00  0.00000000000E+00 -0.23168871564E+02  0.23168871564E+02  0.00000000000E+00 0. -1.
      -24    2    1    2    0    0  0.14472240439E+03 -0.17930382291E+02  0.42288275288E+03  0.45463666391E+03  0.81231770574E+02 0.  0.
       11    1    3    3    0    0  0.14352548522E+03 -0.26409199757E+02  0.32358977311E+03  0.35497514280E+03  0.00000000000E+00 0. -1.
      -12    1    3    3    0    0  0.11969191735E+01  0.84788174658E+01  0.99292979762E+02  0.99661521116E+02  0.00000000000E+00 0.  1.
        2    1    1    2  501    0 -0.14472240439E+03  0.17930382291E+02  0.72180564921E+03  0.73638948130E+03  0.00000000000E+00 0. -1.
</event>
<event>
 6   1  0.2604700E+01  0.8040000E+02  0.7957747E-01  0.1297830E+00
       21   -1    0    0  501  502  0.00000000000E+00  0.00000000000E+00  0.35970817153E+01  0.35970817153E+01  0.00000000000E+00 0. -1.
        2   -1    0    0  502    0  0.00000000000E+00  0.00000000000E+00 -0.16799678834E+04  0.16799678834E+04  0.00000000000E+00 0. -1.
       24    2    1    2    0    0  0.65218910067E+01  0.18978488287E+02 -0.16396343622E+04  0.16417046729E+04  0.79941685997E+02 0.  0.
      -11    1    3    3    0    0  0.29570648063E+02 -0.23582990136E+01 -0.25586275884E+03  0.25757666075E+03  0.00000000000E+00 0.  1.
       12    1    3    3    0    0 -0.23048757056E+02  0.21336787300E+02 -0.13837716034E+04  0.13841280121E+04  0.00000000000E+00 0. -1.
        1    1    1    2  501    0 -0.65218910067E+01 -0.18978488287E+02 -0.36736439457E+02  0.41860292211E+02  0.00000000000E+00 0. -1.
</event>
<event>
 6   1  0.2604700E+01  0.8040000E+02  0.7957747E-01  0.1297830E+00
        2   -1    0    0  502    0  0.00000000000E+00  0.00000000000E+00  0.55599045915E+03  0.55599045915E+03  0.00000000000E+00 0. -1.
       21   -1    0    0  501  502  0.00000000000E+00  0.00000000000E+00 -0.71991755024E+01  0.71991755024E+01  0.00000000000E+00 0.  1.
       24    2    1    2    0    0  0.30542864818E+02  0.12930298543E+02  0.30828331772E+03  0.32040549001E+03  0.80752800799E+02 0.  0.
      -11    1    3    3    0    0  0.57160953843E+02  0.14500634178E+02  0.18118937496E+03  0.19054456863E+03  0.00000000000E+00 0.  1.
       12    1    3    3    0    0 -0.26618089025E+02 -0.15703356347E+01  0.12709394275E+03  0.12986092138E+03  0.00000000000E+00 0. -1.
        1    1    1    2  501    0 -0.30542864818E+02 -0.12930298543E+02  0.24050796593E+03  0.24278414464E+03  0.00000000000E+00 0. -1.
</event>
<event>
 6   2  0.2604700E+01  0.8040000E+02  0.7957747E-01  0.1297830E+00
        1   -1    0    0  502    0  0.00000000000E+00  0.00000000000E+00  0.32607771014E+03  0.32607771014E+03  0.00000000000E+00 0. -1.
       21   -1    0    0  501  502  0.00000000000E+00  0.00000000000E+00 -0.15401276397E+02  0.15401276397E+02  0.00000000000E+00 0.  1.
      -24    2    1    2    0    0  0.27011575997E+02 -0.34298059867E+02  0.25227436841E+03  0.26856271000E+03  0.81102343363E+02 0.  0.
       11    1    3    3    0    0  0.49544623554E+01 -0.28982289193E+02  0.24178582824E+03  0.24356704728E+03  0.00000000000E+00 0. -1.
      -12    1    3    3    0    0  0.22057113641E+02 -0.53157706742E+01  0.10488540174E+02  0.24995662724E+02  0.00000000000E+00 0.  1.
        2    1    1    2  501    0 -0.27011575997E+02  0.34298059867E+02  0.58402065331E+02  0.72916276533E+02  0.00000000000E+00 0. -1.
</event>
<event>
 6   1  0.2604700E+01  0.8040000E+02  0.7957747E-01  0.1297830E+00
       -1   -1    0    0    0  501  0.00000000000E+00  0.00000000000E+00  0.72770500244E+01  0.72770500244E+01  0.00000000000E+00 0.  1.
        2   -1    0    0  502    0  0.00000000000E+00  0.00000000000E+00 -0.32875111519E+03  0.32875111519E+03  0.00000000000E+00 0. -1.
       24    2    1    2    0    0  0.14449483522E+02 -0.60908369604E+01 -0.26240135359E+03  0.27490966456E+03  0.80467182351E+02 0.  0.
      -11    1    3    3    0    0  0.17385530278E+02  0.32377968646E+02 -0.74293604505E+02  0.82886242448E+02  0.00000000000E+00 0.  1.
       12    1    3    3    0    0 -0.29360467559E+01 -0.38468805606E+02 -0.18810774908E+03  0.19202342211E+03  0.00000000000E+00 0. -1.
       21    1    1    2  502  501 -0.14449483522E+02  0.60908369604E+01 -0.59072711578E+02  0.61118500653E+02  0.00000000000E+00 0.  1.
</event>
<event>
 6   1  0.2604700E+01  0.8040000E+02  0.7957747E-01  0.1297830E+00
        4   -1    0    0  502    0  0.00000000000E+00  0.00000000000E+00  0.21071131702E+02  0.21071131702E+02  0.00000000000E+00 0. -1.
       -3   -1    0    0    0  501  0.00000000000E+00  0.00000000000E+00 -0.15132913645E+03  0.15132913645E+03  0.00000000000E+00 0.  1.
       24    2    1    2    0    0  0.20417723891E+02 -0.18218657802E+01 -0.71738675303E+02  0.11039450582E+03  0.81365267386E+02 0.  0.
      -11    1    3    3    0    0 -0.26783360190E+02  0.13711607587E+02 -0.44527068376E+02  0.53740267806E+02  0.00000000000E+00 0.  1.
       12    1    3    3    0    0  0.47201084081E+02 -0.15533473367E+02 -0.27211606927E+02  0.56654238013E+02  0.00000000000E+00 0. -1.
       21    1    1    2  502  501 -0.20417723891E+02  0.18218657802E+01 -0.58519329440E+02  0.62005762329E+02  0.00000000000E+00 0.  1.
</event>
<event>
 6   1  0.2604700E+01  0.8040000E+02  0.7957747E-01  0.1297830E+00
       -1   -1    0    0    0  501  0.00000000000E+00  0.00000000000E+00  0.36550826091E+03  0.36550826091E+03  0.00000000000E+00 0.  1.
       21   -1    0    0  501  502  0.00000000000E+00  0.00000000000E+00 -0.13697891440E+02  0.13697891440E+02  0.00000000000E+00 0.  1.
       24    2    1    2    0    0 -0.28280280846E+02  0.28194413669E+02  0.30294463798E+03  0.31609863330E+03  0.80920906106E+02 0.  0.
      -11    1    3    3    0    0 -0.46144821717E+02  0.23199715454E+02  0.28708321919E+03  0.29169221126E+03  0.00000000000E+00 0.  1.
       12    1    3    3    0    0  0.17864540872E+02  0.49946982147E+01  0.15861418796E+02  0.24406422045E+02  0.00000000000E+00 0. -1.
       -2    1    1    2    0  502  0.28280280846E+02 -0.28194413669E+02  0.48865731488E+02  0.63107519050E+02  0.00000000000E+00 0.  1.
</event>
<event>
 6   1  0.2604700E+01  0.8040000E+02  0.7957747E-01  0.1297830E+00
        2   -1    0    0  502    0  0.00000000000E+00  0.00000000000E+00  0.97173043526E+02  0.97173043526E+02  0.00000000000E+00 0. -1.
       21   -1    0    0  501  502  0.00000000000E+00  0.00000000000E+00 -0.33893617722E+02  0.33893617722E+02  0.00000000000E+00 0. -1.
       24    2    1    2    0    0 -0.17859313666E+02 -0.14545795218E+02  0.68145515430E+02  0.10752490958E+03  0.79920333237E+02 0.  0.
      -11    1    3    3    0    0  0.11388459203E+02  0.60189604207E+01 -0.13337831528E+02  0.18542455000E+02  0.00000000000E+00 0.  1.
       12    1    3    3    0    0 -0.29247772870E+02 -0.20564755639E+02  0.81483346958E+02  0.88982454584E+02  0.00000000000E+00 0. -1.
        1    1    1    2  501    0  0.17859313666E+02  0.14545795218E+02 -0.48660896253E+01  0.23541751664E+02  0.00000000000E+00 0. -1.
</event>
<event>
 6   1  0.2604700E+01  0.8040000E+02  0.7957747E-01  0.1297830E+00
       -1   -1    0    0    0  501  0.00000000000E+00  0.00000000000E+00  0.36406068292E+01  0.36406068292E+01  0.00000000000E+00 0.  1.
        2   -1    0    0  502    0  0.00000000000E+00  0.00000000000E+00 -0.62223024477E+03  0.62223024477E+03  0.00000000000E+00 0. -1.
       24    2    1    2    0    0 -0.95410446171E+00 -0.12706532527E+02 -0.55916054504E+03  0.56509105753E+03  0.80653715883E+02 0.  0.
      -11    1    3    3    0    0 -0.28256144188E+02  0.18745569834E+02 -0.14841516367E+03  0.15223950499E+03  0.00000000000E+00 0.  1.
       12    1    3    3    0    0  0.27302039726E+02 -0.31452102361E+02 -0.41074538137E+03  0.41285155254E+03  0.00000000000E+00 0. -1.
       21    1    1    2  502  501  0.95410446171E+00  0.12706532527E+02 -0.59429092906E+02  0.60779794075E+02  0.00000000000E+00 0.  1.
</event>
<event>
 6   2  0.2604700E+01  0.8040000E+02  0.7957747E-01  0.1297830E+00
        1   -1    0    0  502    0  0.00000000000E+00  0.00000000000E+00  0.60276239640E+03  0.60276239640E+03  0.00000000000E+00 0. -1.
       -2   -1    0    0    0  501  0.00000000000E+00  0.00000000000E+00 -0.42562205871E+01  0.42562205871E+01  0.00000000000E+00 0.  1.
      -24    2    1    2    0    0  0.15776416433E+02  0.22609192732E+01  0.54431831744E+03  0.55053560125E+03  0.80950666918E+02 0.  0.
       11    1    3    3    0    0  0.57992195073E+01 -0.24215480112E+02  0.47517845363E+03  0.47583041434E+03  0.00000000000E+00 0. -1.
      -12    1    3    3    0    0  0.99771969256E+01  0.26476399385E+02  0.69139863814E+02  0.74705186909E+02  0.00000000000E+00 0.  1.
       21    1    1    2  502  501 -0.15776416433E+02 -0.22609192732E+01  0.54187858372E+02  0.56483015734E+02  0.00000000000E+00 0.  1.
</event>
<event>
 6   1  0.2604700E+01  0.8040000E+02  0.7957747E-01  0.1297830E+00
        2   -1    0    0  502    0  0.00000000000E+00  0.00000000000E+00  0.50831168792E+03  0.50831168792E+03  0.00000000000E+00 0. -1.
       21   -1    0    0  501  502  0.00000000000E+00  0.00000000000E+00 -0.17565677921E+02  0.17565677921E+02  0.00000000000E+00 0.  1.
       24    2    1    2    0    0  0.71856291372E+02  0.25352018971E+02  0.33530078271E+03  0.35276101722E+03  0.78788761274E+02 0.  0.
      -11    1    3    3    0    0  0.76551245471E+02 -0.61991945900E+01  0.21511179077E+03  0.22841104554E+03  0.00000000000E+00 0.  1.
       12    1    3    3    0    0 -0.46949540990E+01  0.31551213561E+02  0.12018899195E+03  0.12434997168E+03  0.00000000000E+00 0. -1.
        1    1    1    2  501    0 -0.71856291372E+02 -0.25352018971E+02  0.15544522728E+03  0.17311634862E+03  0.00000000000E+00 0. -1.
</event>
<event>
 6   2  0.2604700E+01  0.8040000E+02  0.7957747E-01  0.1297830E+00
        1   -1    0    0  502    0  0.00000000000E+00  0.00000000000E+00  0.14204335508E+03  0.14204335508E+03  0.00000000000E+00 0. -1.
       21   -1    0    0  501  502  0.00000000000E+00  0.00000000000E+00 -0.35671890024E+02  0.35671890024E+02  0.00000000000E+00 0. -1.
      -24    2    1    2    0    0  0.25386963729E+01  0.25217340435E+02  0.12147663913E+03  0.14821057561E+03  0.81039753389E+02 0.  0.
       11    1    3    3    0    0  0.34575904754E+02  0.96449381043E+01  0.10085082477E+03  0.10704861923E+03  0.00000000000E+00 0. -1.
      -12    1    3    3    0    0 -0.32037208381E+02  0.15572402330E+02  0.20625814358E+02  0.41161956381E+02  0.00000000000E+00 0.  1.
        2    1    1    2  501    0 -0.25386963729E+01 -0.25217340435E+02 -0.15105174080E+02  0.29504669493E+02  0.00000000000E+00 0. -1.
</event>
<event>
 6   1  0.2604700E+01  0.8040000E+02  0.7957747E-01  0.1297830E+00
        2   -1    0    0  502    0  0.00000000000E+00  0.00000000000E+00  0.78450468803E+03  0.78450468803E+03  0.00000000000E+00 0. -1.
       21   -1    0    0  501  502  0.00000000000E+00  0.00000000000E+00 -0.46515949756E+01  0.46515949756E+01  0.00000000000E+00 0.  1.
       24    2    1    2    0    0  0.14540340545E+02 -0.25929921197E+02  0.69370543569E+03  0.69802340647E+03  0.71593729870E+02 0.  0.
      -11    1    3    3    0    0  0.14326257478E+01 -0.17693240163E+02  0.36026700748E+02  0.40162499061E+02  0.00000000000E+00 0.  1.
       12    1    3    3    0    0  0.13107714797E+02 -0.82366810332E+01  0.65767873494E+03  0.65786090741E+03  0.00000000000E+00 0. -1.
        1    1    1    2  501    0 -0.14540340545E+02  0.25929921197E+02  0.86147657366E+02  0.91132876538E+02  0.00000000000E+00 0. -1.
</event>
<event>
 6   2  0.2604700E+01  0.8040000E+02  0.7957747E-01  0.1297830E+00
       21   -1    0    0  501  502  0.00000000000E+00  0.00000000000E+00  0.55081418521E+02  0.55081418521E+02  0.00000000000E+00 0. -1.
       -2   -1    0    0    0  501  0.00000000000E+00  0.00000000000E+00 -0.41604873194E+02  0.41604873194E+02  0.00000000000E+00 0.  1.
      -24    2    1    2    0    0 -0.19911711134E+02  0.78816350374E+01  0.12452394733E+02  0.75246951810E+02  0.71052411719E+02 0.  0.
       11    1    3    3    0    0 -0.42064626550E+02  0.17554738985E+02 -0.43805606158E+01  0.45790730274E+02  0.00000000000E+00 0. -1.
      -12    1    3    3    0    0  0.22152915417E+02 -0.96731039480E+01  0.16832955349E+02  0.29456221537E+02  0.00000000000E+00 0.  1.
       -1    1    1    2    0  502  0.19911711134E+02 -0.78816350374E+01  0.10241505941E+01  0.21439339905E+02  0.00000000000E+00 0.  1.
</event>
<event>
 6   1  0.2604700E+01  0.8040000E+02  0.7957747E-01  0.1297830E+00
        2   -1    0    0  502    0  0.00000000000E+00  0.00000000000E+00  0.46777046795E+03  0.46777046795E+03  0.00000000000E+00 0. -1.
       21   -1    0    0  501  502  0.00000000000E+00  0.00000000000E+00 -0.73825679326E+01  0.73825679326E+01  0.00000000000E+00 0. -1.
       24    2    1    2    0    0  0.24793639881E+01 -0.26015555337E+02  0.41089251436E+03  0.41918206513E+03  0.78727307886E+02 0.  0.
      -11    1    3    3    0    0  0.61017954693E+01  0.24349998323E+02  0.66001564052E+02  0.70614168433E+02  0.00000000000E+00 0.  1.
       12    1    3    3    0    0 -0.36224314812E+01 -0.50365553660E+02  0.34489095030E+03  0.34856789670E+03  0.00000000000E+00 0. -1.
        1    1    1    2  501    0 -0.24793639881E+01  0.26015555337E+02  0.49495385663E+02  0.55970970755E+02  0.00000000000E+00 0. -1.
</event>
<event>
 6   2  0.2604700E+01  0.8040000E+02  0.7957747E-01  0.1297830E+00
        1   -1    0    0  502    0  0.00000000000E+00  0.00000000000E+00  0.37933646200E+03  0.37933646200E+03  0.00000000000E+00 0. -1.
       -2   -1    0    0    0  501  0.00000000000E+00  0.00000000000E+00 -0.73703962433E+01  0.73703962433E+01  0.00000000000E+00 0.  1.
      -24    2    1    2    0    0  0.13501536974E+02 -0.10651247396E+02  0.24319953451E+03  0.25679704283E+03  0.80640976234E+02 0.  0.
       11    1    3    3    0    0  0.72153079711E+01 -0.22729391071E+02  0.24195149772E+03  0.24312386377E+03  0.00000000000E+00 0. -1.
      -12    1    3    3    0    0  0.62862290025E+01  0.12078143675E+02  0.12480367929E+01  0.13673179057E+02  0.00000000000E+00 0.  1.
       21    1    1    2  502  501 -0.13501536974E+02  0.10651247396E+02  0.12876653124E+03  0.12990981541E+03  0.00000000000E+00 0. -1.
</event>
<event>
 6   2  0.2604700E+01  0.8040000E+02  0.7957747E-01  0.1297830E+00
       21   -1    0    0  501  502  0.00000000000E+00  0.00000000000E+00  0.17213926709E+03  0.17213926709E+03  0.00000000000E+00 0.  1.
       -2   -1    0    0    0  501  0.00000000000E+00  0.00000000000E+00 -0.26292487648E+02  0.26292487648E+02  0.00000000000E+00 0.  1.
      -24    2    1    2    0    0 -0.16086081181E+02  0.16281066220E+02  0.42079444572E+02  0.92170308713E+02  0.78745482587E+02 0.  0.
       11    1    3    3    0    0 -0.45285352967E+02 -0.36601575045E+01  0.15751081296E+02  0.48085928382E+02  0.00000000000E+00 0. -1.
      -12    1    3    3    0    0  0.29199271786E+02  0.19941223724E+02  0.26328363275E+02  0.44084380332E+02  0.00000000000E+00 0.  1.
       -1    1    1    2    0  502  0.16086081181E+02 -0.16281066220E+02  0.10376733487E+03  0.10626144603E+03  0.00000000000E+00 0.  1.
</event>
<event>
 6   1  0.2604700E+01  0.8040000E+02  0.7957747E-01  0.1297830E+00
        2   -1    0    0  502    0  0.00000000000E+00  0.00000000000E+00  0.90076790737E+03  0.90076790737E+03  0.00000000000E+00 0. -1.
       21   -1    0    0  501  502  0.00000000000E+00  0.00000000000E+00 -0.42814942617E+01  0.42814942617E+01  0.00000000000E+00 0.  1.
       24    2    1    2    0    0 -0.14369967638E+02  0.40734580592E+01  0.87457331928E+03  0.87853011220E+03  0.81936427974E+02 0.  0.
      -11    1    3    3    0    0 -0.14989537924E+02  0.39233791969E+02  0.30580010283E+03  0.30867082721E+03  0.00000000000E+00 0.  1.
       12    1    3    3    0    0  0.61957028650E+00 -0.35160333909E+02  0.56877321644E+03  0.56985928499E+03  0.00000000000E+00 0. -1.
        1    1    1    2  501    0  0.14369967638E+02 -0.40734580592E+01  0.21913093835E+02  0.26519289430E+02  0.00000000000E+00 0. -1.
</event>
<event>
 6   1  0.2604700E+01  0.8040000E+02  0.7957747E-01  0.1297830E+00
       21   -1    0    0  501  502  0.00000000000E+00  0.00000000000E+00  0.18062878755E+02  0.18062878755E+02  0.00000000000E+00 0.  1.
       -1   -1    0    0    0  501  0.00000000000E+00  0.00000000000E+00 -0.21271810792E+03  0.21271810792E+03  0.00000000000E+00 0.  1.
       24    2    1    2    0    0 -0.65779438379E+01  0.16497338419E+02 -0.19681328610E+03  0.21288996295E+03  0.79191130930E+02 0.  0.
      -11    1    3    3    0    0  0.35193184460E+02  0.10050264393E+02 -0.11679052948E+03  0.12239115909E+03  0.00000000000E+00 0.  1.
       12    1    3    3    0    0 -0.41771128298E+02  0.64470740258E+01 -0.80022756626E+02  0.90498803864E+02  0.00000000000E+00 0. -1.
       -2    1    1    2    0  502  0.65779438379E+01 -0.16497338419E+02  0.21580569418E+01  0.17891023722E+02  0.00000000000E+00 0.  1.
</event>
<event>
 6   2  0.2604700E+01  0.8040000E+02  0.7957747E-01  0.1297830E+00
       -2   -1    0    0    0  501  0.00000000000E+00  0.00000000000E+00  0.13861054424E+03  0.13861054424E+03  0.00000000000E+00 0.  1.
       21   -1    0    0  501  502  0.00000000000E+00  0.00000000000E+00 -0.20153293908E+02  0.20153293908E+02  0.00000000000E+00 0.  1.
      -24    2    1    2    0    0  0.12703274096E+02 -0.94881800099E+01  0.11631085006E+03  0.14276365794E+03  0.81251765845E+02 0.  0.
       11    1    3    3    0    0 -0.59993586387E+01  0.32462410692E+02  0.28272599519E+02  0.43464241574E+02  0.00000000000E+00 0. -1.
      -12    1    3    3    0    0  0.18702632735E+02 -0.41950590702E+02  0.88038250544E+02  0.99299416365E+02  0.00000000000E+00 0.  1.
       -1    1    1    2    0  502 -0.12703274096E+02  0.94881800099E+01  0.21464002705E+01  0.16000180211E+02  0.00000000000E+00 0.  1.
</event>
<event>
 6   2  0.2604700E+01  0.8040000E+02  0.7957747E-01  0.1297830E+00
       -2   -1    0    0    0  501  0.00000000000E+00  0.00000000000E+00  0.90261282808E+02  0.90261282808E+02  0.00000000000E+00 0.  1.
        1   -1    0    0  502    0  0.00000000000E+00  0.00000000000E+00 -0.34659700886E+02  0.34659700886E+02  0.00000000000E+00 0. -1.
      -24    2    1    2    0    0  0.12900237607E+02 -0.19650892586E+02  0.56438233101E+02  0.10139921303E+03  0.80894700312E+02 0.  0.
       11    1    3    3    0    0  0.41777915531E+00 -0.13453189715E+02 -0.19775697890E+02  0.23921560985E+02  0.00000000000E+00 0. -1.
      -12    1    3    3    0    0  0.12482458452E+02 -0.61977028711E+01  0.76213930991E+02  0.77477652049E+02  0.00000000000E+00 0.  1.
       21    1    1    2  502  501 -0.12900237607E+02  0.19650892586E+02 -0.83665117906E+00  0.23521770659E+02  0.00000000000E+00 0. -1.
</event>
<event>
 6   1  0.2604700E+01  0.8040000E+02  0.7957747E-01  0.1297830E+00
       21   -1    0    0  501  502  0.00000000000E+00  0.00000000000E+00  0.10582940119E+03  0.10582940119E+03  0.00000000000E+00 0.  1.
       -1   -1    0    0    0  501  0.00000000000E+00  0.00000000000E+00 -0.47677013018E+02  0.47677013018E+02  0.00000000000E+00 0.  1.
       24    2    1    2    0    0 -0.46174707605E+02  0.24247323586E+01  0.54782999479E+02  0.10714548529E+03  0.79630365048E+02 0.  0.
      -11    1    3    3    0    0 -0.58910664285E+02  0.20311052819E+02  0.57786062150E+02  0.84983729101E+02  0.00000000000E+00 0.  1.
       12    1    3    3    0    0  0.12735956680E+02 -0.17886320461E+02 -0.30030626708E+01  0.22161756193E+02  0.00000000000E+00 0. -1.
       -2    1    1    2    0  502  0.46174707605E+02 -0.24247323586E+01  0.33693886910E+01  0.46360928912E+02  0.00000000000E+00 0.  1.
</event>
<event>
 6   2  0.2604700E+01  0.8040000E+02  0.7957747E-01  0.1297830E+00
       21   -1    0    0  501  502  0.00000000000E+00  0.00000000000E+00  0.16568210004E+02  0.16568210004E+02  0.00000000000E+00 0.  1.
        3   -1    0    0  502    0  0.00000000000E+00  0.00000000000E+00 -0.18090843558E+03  0.18090843558E+03  0.00000000000E+00 0. -1.
      -24    2    1    2    0    0 -0.14298122660E+02  0.19128824373E+02 -0.10914681060E+03  0.13733796178E+03  0.79864518074E+02 0.  0.
       11    1    3    3    0    0  0.24732101941E+02  0.57032992166E+01 -0.86732235229E+02  0.90369713490E+02  0.00000000000E+00 0. -1.
      -12    1    3    3    0    0 -0.39030224601E+02  0.13425525156E+02 -0.22414575376E+02  0.46968248290E+02  0.00000000000E+00 0.  1.
        4    1    1    2  501    0  0.14298122660E+02 -0.19128824373E+02 -0.55193414974E+02  0.60138683806E+02  0.00000000000E+00 0. -1.
</event>
<event>
 6   2  0.2604700E+01  0.8040000E+02  0.7957747E-01  0.1297830E+00
        3   -1    0    0  502    0  0.00000000000E+00  0.00000000000E+00  0.18495792720E+02  0.18495792720E+02  0.00000000000E+00 0. -1.
       -4   -1    0    0    0  501  0.00000000000E+00  0.00000000000E+00 -0.25638080641E+03  0.25638080641E+03  0.00000000000E+00 0.  1.
      -24    2    1    2    0    0 -0.23765109848E+02 -0.18891690794E+02 -0.22671010958E+03  0.24252609822E+03  0.80621077298E+02 0.  0.
       11    1    3    3    0    0  0.15391923833E+02 -0.29530772632E+02 -0.42995115563E+02  0.54383433266E+02  0.00000000000E+00 0. -1.
      -12    1    3    3    0    0 -0.39157033681E+02  0.10639081838E+02 -0.18371499402E+03  0.18814266496E+03  0.00000000000E+00 0.  1.
       21    1    1    2  502  501  0.23765109848E+02  0.18891690794E+02 -0.11174904108E+02  0.32350500908E+02  0.00000000000E+00 0. -1.
</event>
<event>
 6   1  0.2604700E+01  0.8040000E+02  0.7957747E-01  0.1297830E+00
        2   -1    0    0  502    0  0.00000000000E+00  0.00000000000E+00  0.55637803440E+03  0.55637803440E+03  0.00000000000E+00 0. -1.
       21   -1    0    0  501  502  0.00000000000E+00  0.00000000000E+00 -0.10706923466E+02  0.10706923466E+02  0.00000000000E+00 0. -1.
       24    2    1    2    0    0  0.37787332887E+02  0.21782081675E+02  0.47765837295E+03  0.48628845957E+03  0.80103701863E+02 0.  0.
      -11    1    3    3    0    0 -0.15781312814E+02 -0.13772488385E+02  0.56634764872E+02  0.60384003367E+02  0.00000000000E+00 0.  1.
       12    1    3    3    0    0  0.53568645701E+02  0.35554570060E+02  0.42102360807E+03  0.42590445620E+03  0.00000000000E+00 0. -1.
        1    1    1    2  501    0 -0.37787332887E+02 -0.21782081675E+02  0.68012737982E+02  0.80796498294E+02  0.00000000000E+00 0. -1.
</event>
<event>
 6   1  0.2604700E+01  0.8040000E+02  0.7957747E-01  0.1297830E+00
       21   -1    0    0  501  502  0.00000000000E+00  0.00000000000E+00  0.63624879046E+02  0.63624879046E+02  0.00000000000E+00 0. -1.
        2   -1    0    0  502    0  0.00000000000E+00  0.00000000000E+00 -0.24761785648E+03  0.24761785648E+03  0.00000000000E+00 0. -1.
       24    2    1    2    0    0 -0.14998386791E+02  0.33933517522E+01 -0.23951715318E+03  0.25362849653E+03  0.81990738144E+02 0.  0.
      -11    1    3    3    0    0 -0.16195816486E+02  0.13071758841E+02 -0.86229585153E+01  0.22528443453E+02  0.00000000000E+00 0.  1.
       12    1    3    3    0    0  0.11974296951E+01 -0.96784070892E+01 -0.23089419466E+03  0.23110005307E+03  0.00000000000E+00 0. -1.
        1    1    1    2  501    0  0.14998386791E+02 -0.33933517522E+01  0.55524175748E+02  0.57614238995E+02  0.00000000000E+00 0. -1.
</event>
<event>
 6   1  0.2604700E+01  0.8040000E+02  0.7957747E-01  0.1297830E+00
       -1   -1    0    0    0  501  0.00000000000E+00  0.00000000000E+00  0.50686391312E+01  0.50686391312E+01  0.00000000000E+00 0.  1.
       21   -1    0    0  501  502  0.00000000000E+00  0.00000000000E+00 -0.55037642405E+03  0.55037642405E+03  0.00000000000E+00 0. -1.
       24    2    1    2    0    0  0.20759236297E+01  0.21442048402E+02 -0.39526912248E+03  0.40386778545E+03  0.80046474238E+02 0.  0.
      -11    1    3    3    0    0  0.16663534349E+02 -0.13399543695E+02 -0.30841965241E+03  0.30915999603E+03  0.00000000000E+00 0.  1.
       12    1    3    3    0    0 -0.14587610719E+02  0.34841592097E+02 -0.86849470070E+02  0.94707789425E+02  0.00000000000E+00 0. -1.
       -2    1    1    2    0  502 -0.20759236297E+01 -0.21442048402E+02 -0.15003866243E+03  0.15157727773E+03  0.00000000000E+00 0.  1.
</event>
<event>
 6   2  0.2604700E+01  0.8040000E+02  0.7957747E-01  0.1297830E+00
       21   -1    0    0  501  502  0.00000000000E+00  0.00000000000E+00  0.11321597458E+02  0.11321597458E+02  0.00000000000E+00 0. -1.
        1   -1    0    0  502    0  0.00000000000E+00  0.00000000000E+00 -0.52842610133E+03  0.52842610133E+03  0.00000000000E+00 0. -1.
      -24    2    1    2    0    0 -0.13134478849E+02 -0.45673363954E+02 -0.22469309199E+03  0.24349948443E+03  0.80910089737E+02 0.  0.
       11    1    3    3    0    0 -0.34709861293E+02 -0.39485626089E+02 -0.71919696500E+02  0.89086092536E+02  0.00000000000E+00 0. -1.
      -12    1    3    3    0    0  0.21575382444E+02 -0.61877378650E+01 -0.15277339549E+03  0.15441339189E+03  0.00000000000E+00 0.  1.
        2    1    1    2  501    0  0.13134478849E+02  0.45673363954E+02 -0.29241141188E+03  0.29624821436E+03  0.00000000000E+00 0. -1.
</event>
</LesHouchesEvents>
