<LesHouchesEvents version="1.0">
<header>
<!--
#*********************************************************************
#                                                                    *
#                            MadGraph 5                              *
#                                                                    *
#                           Going Beyond                             *
#                                                                    *
#                   http://madgraph.hep.uiuc.edu                     *
#                   http://madgraph.phys.ucl.ac.be                   *
#                   http://madgraph.roma2.infn.it                    *
#                                                                    *
#                         The MadGraph team                          *
#                                                                    *
#....................................................................*
#                                                                    *
# This file contains all the information necessary to reproduce      *
# the events generated:                                              *
#                                                                    *
# 1. software version                                                *
# 2. proc_card          : code generation info including model       *
# 3. param_card         : model primary parameters in the LH format  *
# 4. run_card           : running parameters (collider and cuts)     *
# 5. pythia_card        : present only if pythia has been run        *
# 6. pgs_card           : present only if pgs has been run           *
# 7. delphes_cards      : present only if delphes has been run       *
#                                                                    *
#                                                                    *
#*********************************************************************
-->
<MGVersion>
# MG    version    : 5.1.5.5
</MGVersion>
<MG5ProcCard>
#************************************************************
#*                        MadGraph 5                        *
#*                                                          *
#*                *                       *                 *
#*                  *        * *        *                   *
#*                    * * * * 5 * * * *                     *
#*                  *        * *        *                   *
#*                *                       *                 *
#*                                                          *
#*                                                          *
#*         VERSION 1.5.5                 2012-11-18         *
#*                                                          *
#*    The MadGraph Development Team - Please visit us at    *
#*    https://server06.fynu.ucl.ac.be/projects/madgraph     *
#*                                                          *
#************************************************************
#*                                                          *
#*               Command File for MadGraph 5                *
#*                                                          *
#*     run as ./bin/mg5  filename                           *
#*                                                          *
#************************************************************
set group_subprocesses Auto
set ignore_six_quark_processes False
set gauge unitary
set complex_mass_scheme False
import model sm
define p = g u c d s u~ c~ d~ s~
define j = g u c d s u~ c~ d~ s~
define l+ = e+ mu+
define l- = e- mu-
define vl = ve vm vt
define vl~ = ve~ vm~ vt~
# Specify process(es) to run
generate p p > w+ , w+ > e+ ve QED=2 @1
add process p p > w- , w- > e- ve~ QED=2 @2
# Output processes to MadEvent directory
output -f
</MG5ProcCard>
<MGProcCard>
#*********************************************************************
#                        MadGraph/MadEvent                           *
#                   http://madgraph.hep.uiuc.edu                     *
#                                                                    *
#                          proc_card.dat                             *
#*********************************************************************
#                                                                    *
#            This Files is generated by MADGRAPH 5                   *
#                                                                    *
# WARNING: This Files is generated for MADEVENT (compatibility issue)*
#          This files is NOT a valid MG4 proc_card.dat               *
#          Running this in MG4 will NEVER reproduce the result of MG5*
#                                                                    *
#*********************************************************************
#*********************************************************************
# Process(es) requested : mg2 input                                  *
#*********************************************************************
# Begin PROCESS # This is TAG. Do not modify this line
p p > w+ , w+ > e+ ve @1           #Process
# Be carefull the coupling are here in MG5 convention
QED=2
end_coup           # End the couplings input
done               # this tells MG there are no more procs
# End PROCESS  # This is TAG. Do not modify this line
#*********************************************************************
# Model information                                                  *
#*********************************************************************
# Begin MODEL  # This is TAG. Do not modify this line
sm
# End   MODEL  # This is TAG. Do not modify this line
#*********************************************************************
# Start multiparticle definitions                                    *
#*********************************************************************
# Begin MULTIPARTICLES # This is TAG. Do not modify this line
# End  MULTIPARTICLES # This is TAG. Do not modify this line
</MGProcCard>
<slha>
######################################################################
## PARAM_CARD AUTOMATICALY GENERATED BY MG5 FOLLOWING UFO MODEL   ####
######################################################################
##                                                                  ##
##  Width set on Auto will be computed following the information    ##
##        present in the decay.py files of the model. By default,   ##
##        this is only 1->2 decay modes.                            ##
##                                                                  ##
######################################################################
###################################
## INFORMATION FOR MASS
###################################
Block mass 
    5 4.700000e+00 # MB 
    6 1.730000e+02 # MT 
   15 1.777000e+00 # MTA 
   23 9.118800e+01 # MZ 
   25 1.200000e+02 # MH 
##  Not dependent paramater.
## Those values should be edited following the 
## analytical expression. MG5 ignore those values 
## but they are important for interfacing the output of MG5
## to external program such as Pythia.
  1 0.000000 # d : 0.0 
  2 0.000000 # u : 0.0 
  3 0.000000 # s : 0.0 
  4 0.000000 # c : 0.0 
  11 0.000000 # e- : 0.0 
  12 0.000000 # ve : 0.0 
  13 0.000000 # mu- : 0.0 
  14 0.000000 # vm : 0.0 
  16 0.000000 # vt : 0.0 
  21 0.000000 # g : 0.0 
  22 0.000000 # a : 0.0 
  24 80.419002 # w+ : cmath.sqrt(MZ__exp__2/2. + cmath.sqrt(MZ__exp__4/4. - (aEW*cmath.pi*MZ__exp__2)/(Gf*sqrt__2))) 
###################################
## INFORMATION FOR SMINPUTS
###################################
Block sminputs 
    1 1.325070e+02 # aEWM1 
    2 1.166390e-05 # Gf 
    3 1.180000e-01 # aS 
###################################
## INFORMATION FOR YUKAWA
###################################
Block yukawa 
    5 4.200000e+00 # ymb 
    6 1.645000e+02 # ymt 
   15 1.777000e+00 # ymtau 
###################################
## INFORMATION FOR DECAY
###################################
DECAY   6 1.491500e+00 # WT 
DECAY  23 2.441404e+00 # WZ 
DECAY  24 2.047600e+00 # WW 
DECAY  25 5.753088e-03 # WH 
##  Not dependent paramater.
## Those values should be edited following the 
## analytical expression. MG5 ignore those values 
## but they are important for interfacing the output of MG5
## to external program such as Pythia.
DECAY  1 0.000000 # d : 0.0 
DECAY  2 0.000000 # u : 0.0 
DECAY  3 0.000000 # s : 0.0 
DECAY  4 0.000000 # c : 0.0 
DECAY  5 0.000000 # b : 0.0 
DECAY  11 0.000000 # e- : 0.0 
DECAY  12 0.000000 # ve : 0.0 
DECAY  13 0.000000 # mu- : 0.0 
DECAY  14 0.000000 # vm : 0.0 
DECAY  15 0.000000 # ta- : 0.0 
DECAY  16 0.000000 # vt : 0.0 
DECAY  21 0.000000 # g : 0.0 
DECAY  22 0.000000 # a : 0.0 
</slha>
<MGRunCard>
#*********************************************************************
#                       MadGraph/MadEvent                            *
#                  http://madgraph.hep.uiuc.edu                      *
#                                                                    *
#                        run_card.dat                                *
#                                                                    *
#  This file is used to set the parameters of the run.               *
#                                                                    *
#  Some notation/conventions:                                        *
#                                                                    *
#   Lines starting with a '# ' are info or comments                  *
#                                                                    *
#   mind the format:   value    = variable     ! comment             *
#*********************************************************************
#
#*******************                                                 
# Running parameters
#*******************                                                 
#                                                                    
#*********************************************************************
# Tag name for the run (one word)                                    *
#*********************************************************************
  tag_1     = run_tag ! name of the run 
#*********************************************************************
# Run to generate the grid pack                                      *
#*********************************************************************
  .false.     = gridpack  !True = setting up the grid pack
#*********************************************************************
# Number of events and rnd seed                                      *
# Warning: Do not generate more than 1M events in a single run       *
# If you want to run Pythia, avoid more than 50k events in a run.    *
#*********************************************************************
  1000        = nevents ! Number of unweighted events requested 
      405 = iseed   ! rnd seed (0=assigned automatically=default))
#*********************************************************************
# Collider type and energy                                           *
# lpp: 0=No PDF, 1=proton, -1=antiproton, 2=photon from proton,      *
#                                         3=photon from electron     *
#*********************************************************************
        1     = lpp1    ! beam 1 type 
        1     = lpp2    ! beam 2 type
     3500     = ebeam1  ! beam 1 total energy in GeV
     3500     = ebeam2  ! beam 2 total energy in GeV
#*********************************************************************
# Beam polarization from -100 (left-handed) to 100 (right-handed)    *
#*********************************************************************
        0     = polbeam1 ! beam polarization for beam 1
        0     = polbeam2 ! beam polarization for beam 2
#*********************************************************************
# PDF CHOICE: this automatically fixes also alpha_s and its evol.    *
#*********************************************************************
 'lhapdf'    = pdlabel     ! PDF set                                  
 10042       = lhaid          ! PDF set cteq6m
#*********************************************************************
# Renormalization and factorization scales                           *
#*********************************************************************
 T        = fixed_ren_scale  ! if .true. use fixed ren scale
 T        = fixed_fac_scale  ! if .true. use fixed fac scale
 91.1880  = scale            ! fixed ren scale
 80.4     = dsqrt_q2fact1    ! fixed fact scale for pdf1
 80.4     = dsqrt_q2fact2    ! fixed fact scale for pdf2
 1        = scalefact        ! scale factor for event-by-event scales
#*********************************************************************
# Matching - Warning! ickkw > 1 is still beta
#*********************************************************************
 0        = ickkw            ! 0 no matching, 1 MLM, 2 CKKW matching
 1        = highestmult      ! for ickkw=2, highest mult group
 1        = ktscheme         ! for ickkw=1, 1 Durham kT, 2 Pythia pTE
 1        = alpsfact         ! scale factor for QCD emission vx
 F        = chcluster        ! cluster only according to channel diag
 F        = pdfwgt           ! for ickkw=1, perform pdf reweighting
#*********************************************************************
# Automatic ptj and mjj cuts if xqcut > 0
# (turn off for VBF and single top processes)
#**********************************************************
   F  = auto_ptj_mjj  ! Automatic setting of ptj and mjj
#**********************************************************
#                                                                    
#**********************************
# BW cutoff (M+/-bwcutoff*Gamma)
#**********************************
  5  = bwcutoff      ! (M+/-bwcutoff*Gamma)
#**********************************************************
# Apply pt/E/eta/dr/mij cuts on decay products or not
# (note that etmiss/ptll/ptheavy/ht/sorted cuts always apply)
#**********************************************************
   F  = cut_decays    ! Cut decay products 
#*************************************************************
# Number of helicities to sum per event (0 = all helicities)
# 0 gives more stable result, but longer run time (needed for
# long decay chains e.g.).
# Use >=2 if most helicities contribute, e.g. pure QCD.
#*************************************************************
   0  = nhel          ! Number of helicities used per event
#*******************                                                 
# Standard Cuts
#*******************                                                 
#                                                                    
#*********************************************************************
# Minimum and maximum pt's (for max, -1 means no cut)                *
#*********************************************************************
  5 = ptj       ! minimum pt for the jets 
  0 = ptb       ! minimum pt for the b 
  0  = pta       ! minimum pt for the photons 
  0  = ptl       ! minimum pt for the charged leptons 
  0  = misset    ! minimum missing Et (sum of neutrino's momenta)
  0  = ptheavy   ! minimum pt for one heavy final state
  0  = ptonium   ! minimum pt for the quarkonium states
 -1  = ptjmax    ! maximum pt for the jets
 -1  = ptbmax    ! maximum pt for the b
 -1  = ptamax    ! maximum pt for the photons
 -1  = ptlmax    ! maximum pt for the charged leptons
 -1  = missetmax ! maximum missing Et (sum of neutrino's momenta)
#*********************************************************************
# Minimum and maximum E's (in the lab frame)                         *
#*********************************************************************
  0  = ej     ! minimum E for the jets 
  0  = eb     ! minimum E for the b 
  0  = ea     ! minimum E for the photons 
  0  = el     ! minimum E for the charged leptons 
 -1   = ejmax ! maximum E for the jets
 -1   = ebmax ! maximum E for the b
 -1   = eamax ! maximum E for the photons
 -1   = elmax ! maximum E for the charged leptons
#*********************************************************************
# Maximum and minimum absolute rapidity (for max, -1 means no cut)   *
#*********************************************************************
  -1  = etaj    ! max rap for the jets 
  -1  = etab    ! max rap for the b
  -1  = etaa    ! max rap for the photons 
  -1  = etal    ! max rap for the charged leptons 
  -1  = etaonium ! max rap for the quarkonium states
   0  = etajmin ! min rap for the jets
   0  = etabmin ! min rap for the b
   0  = etaamin ! min rap for the photons
   0  = etalmin ! main rap for the charged leptons
#*********************************************************************
# Minimum and maximum DeltaR distance                                *
#*********************************************************************
 1d-2 = drjj    ! min distance between jets 
 0    = drbb    ! min distance between b's 
 0    = drll    ! min distance between leptons 
 0    = draa    ! min distance between gammas 
 0    = drbj    ! min distance between b and jet 
 0   = draj    ! min distance between gamma and jet 
 0   = drjl    ! min distance between jet and lepton 
 0   = drab    ! min distance between gamma and b 
 0   = drbl    ! min distance between b and lepton 
 0   = dral    ! min distance between gamma and lepton 
 -1  = drjjmax ! max distance between jets
 -1  = drbbmax ! max distance between b's
 -1  = drllmax ! max distance between leptons
 -1  = draamax ! max distance between gammas
 -1  = drbjmax ! max distance between b and jet
 -1  = drajmax ! max distance between gamma and jet
 -1  = drjlmax ! max distance between jet and lepton
 -1  = drabmax ! max distance between gamma and b
 -1  = drblmax ! max distance between b and lepton
 -1  = dralmax ! maxdistance between gamma and lepton
#*********************************************************************
# Minimum and maximum invariant mass for pairs                       *
#*********************************************************************
 5.0 = mmjj    ! min invariant mass of a jet pair 
 0   = mmbb    ! min invariant mass of a b pair 
 0   = mmaa    ! min invariant mass of gamma gamma pair
 0   = mmll    ! min invariant mass of l+l- (same flavour) lepton pair
 -1  = mmjjmax ! max invariant mass of a jet pair
 -1  = mmbbmax ! max invariant mass of a b pair
 -1  = mmaamax ! max invariant mass of gamma gamma pair
 -1  = mmllmax ! max invariant mass of l+l- (same flavour) lepton pair
#*********************************************************************
# Minimum and maximum invariant mass for all letpons                 *
#*********************************************************************
 0   = mmnl    ! min invariant mass for all letpons (l+- and vl) 
 -1  = mmnlmax ! max invariant mass for all letpons (l+- and vl) 
#*********************************************************************
# Minimum and maximum pt for 4-momenta sum of leptons                *
#*********************************************************************
 0   = ptllmin  ! Minimum pt for 4-momenta sum of leptons(l and vl)
 -1  = ptllmax  ! Maximum pt for 4-momenta sum of leptons(l and vl)
#*********************************************************************
# Inclusive cuts                                                     *
#*********************************************************************
 0  = xptj ! minimum pt for at least one jet  
 0  = xptb ! minimum pt for at least one b 
 0  = xpta ! minimum pt for at least one photon 
 0  = xptl ! minimum pt for at least one charged lepton 
#*********************************************************************
# Control the pt's of the jets sorted by pt                          *
#*********************************************************************
 0   = ptj1min ! minimum pt for the leading jet in pt
 0   = ptj2min ! minimum pt for the second jet in pt
 0   = ptj3min ! minimum pt for the third jet in pt
 0   = ptj4min ! minimum pt for the fourth jet in pt
 -1  = ptj1max ! maximum pt for the leading jet in pt 
 -1  = ptj2max ! maximum pt for the second jet in pt
 -1  = ptj3max ! maximum pt for the third jet in pt
 -1  = ptj4max ! maximum pt for the fourth jet in pt
 0   = cutuse  ! reject event if fails any (0) / all (1) jet pt cuts
#*********************************************************************
# Control the pt's of leptons sorted by pt                           *
#*********************************************************************
 0   = ptl1min ! minimum pt for the leading lepton in pt
 0   = ptl2min ! minimum pt for the second lepton in pt
 0   = ptl3min ! minimum pt for the third lepton in pt
 0   = ptl4min ! minimum pt for the fourth lepton in pt
 -1  = ptl1max ! maximum pt for the leading lepton in pt 
 -1  = ptl2max ! maximum pt for the second lepton in pt
 -1  = ptl3max ! maximum pt for the third lepton in pt
 -1  = ptl4max ! maximum pt for the fourth lepton in pt
#*********************************************************************
# Control the Ht(k)=Sum of k leading jets                            *
#*********************************************************************
 0   = htjmin ! minimum jet HT=Sum(jet pt)
 -1  = htjmax ! maximum jet HT=Sum(jet pt)
 0   = ihtmin  !inclusive Ht for all partons (including b)
 -1  = ihtmax  !inclusive Ht for all partons (including b)
 0   = ht2min ! minimum Ht for the two leading jets
 0   = ht3min ! minimum Ht for the three leading jets
 0   = ht4min ! minimum Ht for the four leading jets
 -1  = ht2max ! maximum Ht for the two leading jets
 -1  = ht3max ! maximum Ht for the three leading jets
 -1  = ht4max ! maximum Ht for the four leading jets
#*********************************************************************
# WBF cuts                                                           *
#*********************************************************************
 0   = xetamin ! minimum rapidity for two jets in the WBF case  
 0   = deltaeta ! minimum rapidity for two jets in the WBF case 
#*********************************************************************
# maximal pdg code for quark to be considered as a light jet         *
# (otherwise b cuts are applied)                                     *
#*********************************************************************
 4 = maxjetflavor    ! Maximum jet pdg code
#*********************************************************************
# Jet measure cuts                                                   *
#*********************************************************************
 2.0 = xqcut   ! minimum kt jet measure between partons
#*********************************************************************
 0d0 = kt_durham    ! minimum durham kt jet measure between partons
 0.4 = d_parameter  ! D parameter for hadronic kT
 F   = do_kt_durham        ! T: enable durham kt cut
 15  = pt_pythia    ! minimum pythia pt jet measure between partons
 0   = njets_requested  ! number of jets above the pythia pt cut
 F   = do_pt_pythia        ! T: enable pythia pt cut
#*********************************************************************
</MGRunCard>
<MGGenerationInfo>
#  Number of Events        :        1000
#  Integrated weight (pb)  :  .77489E+04
#  Truncated wgt (pb)      :  .00000E+00
#  Unit wgt                :  .77489E+01
</MGGenerationInfo>
</header>
<init>
     2212     2212  0.35000000000E+04  0.35000000000E+04 0 0 10042 10042 3  2
  0.46446972880E+04  0.17139268058E+02  0.77489000000E+01   1
  0.31042443040E+04  0.11454885420E+02  0.77489000000E+01   2
</init>
<event>
 5   2  0.7748900E+01  0.8040000E+02  0.7957747E-01  0.1297830E+00
        1   -1    0    0  501    0  0.00000000000E+00  0.00000000000E+00  0.26479484980E+03  0.26479484980E+03  0.00000000000E+00 0. -1.
       -2   -1    0    0    0  501  0.00000000000E+00  0.00000000000E+00 -0.63048363096E+01  0.63048363096E+01  0.00000000000E+00 0.  1.
      -24    2    1    2    0    0  0.00000000000E+00  0.00000000000E+00  0.25849001349E+03  0.27109968611E+03  0.81718741636E+02 0.  0.
       11    1    3    3    0    0 -0.26728737129E+02 -0.10555404599E+02  0.22560295169E+03  0.22742588631E+03  0.00000000000E+00 0. -1.
      -12    1    3    3    0    0  0.26728737129E+02  0.10555404599E+02  0.32887061805E+02  0.43673799799E+02  0.00000000000E+00 0.  1.
</event>
<event>
 5   2  0.7748900E+01  0.8040000E+02  0.7957747E-01  0.1297830E+00
       -2   -1    0    0    0  501  0.00000000000E+00  0.00000000000E+00  0.39028810522E+01  0.39028810522E+01  0.00000000000E+00 0.  1.
        1   -1    0    0  501    0  0.00000000000E+00  0.00000000000E+00 -0.42106008141E+03  0.42106008141E+03  0.00000000000E+00 0. -1.
      -24    2    1    2    0    0  0.00000000000E+00  0.00000000000E+00 -0.41715720035E+03  0.42496296246E+03  0.81076443276E+02 0.  0.
       11    1    3    3    0    0  0.18084363820E+02 -0.33476000924E+02 -0.13526103406E+03  0.14051061948E+03  0.00000000000E+00 0. -1.
      -12    1    3    3    0    0 -0.18084363820E+02  0.33476000924E+02 -0.28189616629E+03  0.28445234297E+03  0.00000000000E+00 0.  1.
</event>
<event>
 5   1  0.7748900E+01  0.8040000E+02  0.7957747E-01  0.1297830E+00
       -1   -1    0    0    0  501  0.00000000000E+00  0.00000000000E+00  0.48880149394E+01  0.48880149394E+01  0.00000000000E+00 0.  1.
        2   -1    0    0  501    0  0.00000000000E+00  0.00000000000E+00 -0.32709852979E+03  0.32709852979E+03  0.00000000000E+00 0. -1.
       24    2    1    2    0    0  0.00000000000E+00  0.00000000000E+00 -0.32221051485E+03  0.33198654473E+03  0.79971557451E+02 0.  0.
      -11    1    3    3    0    0  0.29028114163E+02 -0.26529522081E+02 -0.13105037816E+03  0.13682342113E+03  0.00000000000E+00 0.  1.
       12    1    3    3    0    0 -0.29028114163E+02  0.26529522081E+02 -0.19116013669E+03  0.19516312360E+03  0.00000000000E+00 0. -1.
</event>
<event>
 5   2  0.7748900E+01  0.8040000E+02  0.7957747E-01  0.1297830E+00
       -2   -1    0    0    0  501  0.00000000000E+00  0.00000000000E+00  0.11445790066E+02  0.11445790066E+02  0.00000000000E+00 0.  1.
        1   -1    0    0  501    0  0.00000000000E+00  0.00000000000E+00 -0.14045709431E+03  0.14045709431E+03  0.00000000000E+00 0. -1.
      -24    2    1    2    0    0  0.00000000000E+00  0.00000000000E+00 -0.12901130424E+03  0.15190288438E+03  0.80190832761E+02 0.  0.
       11    1    3    3    0    0 -0.13890264809E+02 -0.31737136055E+02 -0.10274251647E+03  0.10842605753E+03  0.00000000000E+00 0. -1.
      -12    1    3    3    0    0  0.13890264809E+02  0.31737136055E+02 -0.26268787779E+02  0.43476826848E+02  0.00000000000E+00 0.  1.
</event>
<event>
 5   1  0.7748900E+01  0.8040000E+02  0.7957747E-01  0.1297830E+00
        4   -1    0    0  501    0  0.00000000000E+00  0.00000000000E+00  0.17300140804E+03  0.17300140804E+03  0.00000000000E+00 0. -1.
       -3   -1    0    0    0  501  0.00000000000E+00  0.00000000000E+00 -0.93967368866E+01  0.93967368866E+01  0.00000000000E+00 0.  1.
       24    2    1    2    0    0  0.00000000000E+00  0.00000000000E+00  0.16360467116E+03  0.18239814493E+03  0.80638668451E+02 0.  0.
      -11    1    3    3    0    0  0.14780994942E+02  0.14192170491E+02  0.32595535122E+01  0.20748980790E+02  0.00000000000E+00 0.  1.
       12    1    3    3    0    0 -0.14780994942E+02 -0.14192170491E+02  0.16034511764E+03  0.16164916414E+03  0.00000000000E+00 0. -1.
</event>
<event>
 5   1  0.7748900E+01  0.8040000E+02  0.7957747E-01  0.1297830E+00
       -1   -1    0    0    0  501  0.00000000000E+00  0.00000000000E+00  0.98291981406E+01  0.98291981406E+01  0.00000000000E+00 0.  1.
        2   -1    0    0  501    0  0.00000000000E+00  0.00000000000E+00 -0.16240810410E+03  0.16240810410E+03  0.00000000000E+00 0. -1.
       24    2    1    2    0    0  0.00000000000E+00  0.00000000000E+00 -0.15257890596E+03  0.17223730224E+03  0.79908483526E+02 0.  0.
      -11    1    3    3    0    0  0.11070780135E+02  0.14532239439E+02  0.29948760809E+00  0.18271230083E+02  0.00000000000E+00 0.  1.
       12    1    3    3    0    0 -0.11070780135E+02 -0.14532239439E+02 -0.15287839357E+03  0.15396607216E+03  0.00000000000E+00 0. -1.
</event>
<event>
 5   1  0.7748900E+01  0.8040000E+02  0.7957747E-01  0.1297830E+00
        2   -1    0    0  501    0  0.00000000000E+00  0.00000000000E+00  0.24466272179E+03  0.24466272179E+03  0.00000000000E+00 0. -1.
       -1   -1    0    0    0  501  0.00000000000E+00  0.00000000000E+00 -0.73196679898E+01  0.73196679898E+01  0.00000000000E+00 0.  1.
       24    2    1    2    0    0  0.00000000000E+00  0.00000000000E+00  0.23734305380E+03  0.25198238978E+03  0.84636868869E+02 0.  0.
      -11    1    3    3    0    0 -0.70677818333E+01 -0.34207324835E+02  0.47544350048E+02  0.58996269661E+02  0.00000000000E+00 0.  1.
       12    1    3    3    0    0  0.70677818333E+01  0.34207324835E+02  0.18979870375E+03  0.19298612012E+03  0.00000000000E+00 0. -1.
</event>
<event>
 5   2  0.7748900E+01  0.8040000E+02  0.7957747E-01  0.1297830E+00
       -2   -1    0    0    0  501  0.00000000000E+00  0.00000000000E+00  0.15389271654E+02  0.15389271654E+02  0.00000000000E+00 0.  1.
        1   -1    0    0  501    0  0.00000000000E+00  0.00000000000E+00 -0.10259904643E+03  0.10259904643E+03  0.00000000000E+00 0. -1.
      -24    2    1    2    0    0  0.00000000000E+00  0.00000000000E+00 -0.87209774775E+02  0.11798831808E+03  0.79471368352E+02 0.  0.
       11    1    3    3    0    0 -0.12455020664E+02 -0.28448059175E+02 -0.80408548676E+02  0.86197182731E+02  0.00000000000E+00 0. -1.
      -12    1    3    3    0    0  0.12455020664E+02  0.28448059175E+02 -0.68012260993E+01  0.31791135353E+02  0.00000000000E+00 0.  1.
</event>
<event>
 5   1  0.7748900E+01  0.8040000E+02  0.7957747E-01  0.1297830E+00
        2   -1    0    0  501    0  0.00000000000E+00  0.00000000000E+00  0.76820893270E+03  0.76820893270E+03  0.00000000000E+00 0. -1.
       -1   -1    0    0    0  501  0.00000000000E+00  0.00000000000E+00 -0.20496323379E+01  0.20496323379E+01  0.00000000000E+00 0.  1.
       24    2    1    2    0    0  0.00000000000E+00  0.00000000000E+00  0.76615930036E+03  0.77025856504E+03  0.79361095524E+02 0.  0.
      -11    1    3    3    0    0 -0.24465365974E+02  0.17905578657E+02  0.13460840652E+03  0.13798038623E+03  0.00000000000E+00 0.  1.
       12    1    3    3    0    0  0.24465365974E+02 -0.17905578657E+02  0.63155089385E+03  0.63227817881E+03  0.00000000000E+00 0. -1.
</event>
<event>
 5   1  0.7748900E+01  0.8040000E+02  0.7957747E-01  0.1297830E+00
       -1   -1    0    0    0  501  0.00000000000E+00  0.00000000000E+00  0.13404744363E+02  0.13404744363E+02  0.00000000000E+00 0.  1.
        2   -1    0    0  501    0  0.00000000000E+00  0.00000000000E+00 -0.93752218056E+02  0.93752218056E+02  0.00000000000E+00 0. -1.
       24    2    1    2    0    0  0.00000000000E+00  0.00000000000E+00 -0.80347473693E+02  0.10715696242E+03  0.70900621056E+02 0.  0.
      -11    1    3    3    0    0  0.96205174230E+01  0.21522220740E+02 -0.15915654032E+00  0.23575107039E+02  0.00000000000E+00 0.  1.
       12    1    3    3    0    0 -0.96205174230E+01 -0.21522220740E+02 -0.80188317152E+02  0.83581855380E+02  0.00000000000E+00 0. -1.
</event>
<event>
 5   1  0.7748900E+01  0.8040000E+02  0.7957747E-01  0.1297830E+00
        2   -1    0    0  501    0  0.00000000000E+00  0.00000000000E+00  0.72453613761E+03  0.72453613761E+03  0.00000000000E+00 0. -1.
       -1   -1    0    0    0  501  0.00000000000E+00  0.00000000000E+00 -0.23128622467E+01  0.23128622467E+01  0.00000000000E+00 0.  1.
       24    2    1    2    0    0  0.00000000000E+00  0.00000000000E+00  0.72222327536E+03  0.72684899986E+03  0.81871906758E+02 0.  0.
      -11    1    3    3    0    0  0.16126402556E+02 -0.34326305431E+02  0.22432422001E+03  0.22750760819E+03  0.00000000000E+00 0.  1.
       12    1    3    3    0    0 -0.16126402556E+02  0.34326305431E+02  0.49789905536E+03  0.49934139166E+03  0.00000000000E+00 0. -1.
</event>
<event>
 5   2  0.7748900E+01  0.8040000E+02  0.7957747E-01  0.1297830E+00
        1   -1    0    0  501    0  0.00000000000E+00  0.00000000000E+00  0.21388125187E+02  0.21388125187E+02  0.00000000000E+00 0. -1.
       -2   -1    0    0    0  501  0.00000000000E+00  0.00000000000E+00 -0.72323981742E+02  0.72323981742E+02  0.00000000000E+00 0.  1.
      -24    2    1    2    0    0  0.00000000000E+00  0.00000000000E+00 -0.50935856555E+02  0.93712106929E+02  0.78660647735E+02 0.  0.
       11    1    3    3    0    0  0.74997746125E+01  0.19498801987E+02  0.14231357833E+02  0.25278082283E+02  0.00000000000E+00 0. -1.
      -12    1    3    3    0    0 -0.74997746125E+01 -0.19498801987E+02 -0.65167214387E+02  0.68434024645E+02  0.00000000000E+00 0.  1.
</event>
<event>
 5   1  0.7748900E+01  0.8040000E+02  0.7957747E-01  0.1297830E+00
        2   -1    0    0  501    0  0.00000000000E+00  0.00000000000E+00  0.10800513069E+04  0.10800513069E+04  0.00000000000E+00 0. -1.
       -1   -1    0    0    0  501  0.00000000000E+00  0.00000000000E+00 -0.15106034943E+01  0.15106034943E+01  0.00000000000E+00 0.  1.
       24    2    1    2    0    0  0.00000000000E+00  0.00000000000E+00  0.10785407034E+04  0.10815619104E+04  0.80784386568E+02 0.  0.
      -11    1    3    3    0    0 -0.23088478716E+02 -0.80587789969E+01  0.10886191951E+03  0.11157481476E+03  0.00000000000E+00 0.  1.
       12    1    3    3    0    0  0.23088478716E+02  0.80587789969E+01  0.96967878391E+03  0.96998709566E+03  0.00000000000E+00 0. -1.
</event>
<event>
 5   1  0.7748900E+01  0.8040000E+02  0.7957747E-01  0.1297830E+00
       -3   -1    0    0    0  501  0.00000000000E+00  0.00000000000E+00  0.15088335807E+03  0.15088335807E+03  0.00000000000E+00 0.  1.
        4   -1    0    0  501    0  0.00000000000E+00  0.00000000000E+00 -0.92619924252E+01  0.92619924252E+01  0.00000000000E+00 0. -1.
       24    2    1    2    0    0  0.00000000000E+00  0.00000000000E+00  0.14162136564E+03  0.16014535049E+03  0.74765781464E+02 0.  0.
      -11    1    3    3    0    0 -0.30725939917E+02  0.14534863544E+02  0.10414105264E+03  0.10954772699E+03  0.00000000000E+00 0.  1.
       12    1    3    3    0    0  0.30725939917E+02 -0.14534863544E+02  0.37480312997E+02  0.50597623505E+02  0.00000000000E+00 0. -1.
</event>
<event>
 5   1  0.7748900E+01  0.8040000E+02  0.7957747E-01  0.1297830E+00
       -1   -1    0    0    0  501  0.00000000000E+00  0.00000000000E+00  0.65850070690E+02  0.65850070690E+02  0.00000000000E+00 0.  1.
        2   -1    0    0  501    0  0.00000000000E+00  0.00000000000E+00 -0.24120139807E+02  0.24120139807E+02  0.00000000000E+00 0. -1.
       24    2    1    2    0    0  0.00000000000E+00  0.00000000000E+00  0.41729930884E+02  0.89970210497E+02  0.79707287279E+02 0.  0.
      -11    1    3    3    0    0  0.22459396099E+02 -0.47733659287E+01  0.57633774566E+02  0.62039192984E+02  0.00000000000E+00 0.  1.
       12    1    3    3    0    0 -0.22459396099E+02  0.47733659287E+01 -0.15903843682E+02  0.27931017513E+02  0.00000000000E+00 0. -1.
</event>
<event>
 5   1  0.7748900E+01  0.8040000E+02  0.7957747E-01  0.1297830E+00
        4   -1    0    0  501    0  0.00000000000E+00  0.00000000000E+00  0.31691162203E+02  0.31691162203E+02  0.00000000000E+00 0. -1.
       -3   -1    0    0    0  501  0.00000000000E+00  0.00000000000E+00 -0.51075564790E+02  0.51075564790E+02  0.00000000000E+00 0.  1.
       24    2    1    2    0    0  0.00000000000E+00  0.00000000000E+00 -0.19384402587E+02  0.82766726993E+02  0.80464750254E+02 0.  0.
      -11    1    3    3    0    0 -0.71851023511E+01 -0.30993818337E+02 -0.35021913802E+02  0.47315715330E+02  0.00000000000E+00 0.  1.
       12    1    3    3    0    0  0.71851023511E+01  0.30993818337E+02  0.15637511215E+02  0.35451011662E+02  0.00000000000E+00 0. -1.
</event>
<event>
 5   1  0.7748900E+01  0.8040000E+02  0.7957747E-01  0.1297830E+00
        2   -1    0    0  501    0  0.00000000000E+00  0.00000000000E+00  0.10277763359E+03  0.10277763359E+03  0.00000000000E+00 0. -1.
       -1   -1    0    0    0  501  0.00000000000E+00  0.00000000000E+00 -0.14669539437E+02  0.14669539437E+02  0.00000000000E+00 0.  1.
       24    2    1    2    0    0  0.00000000000E+00  0.00000000000E+00  0.88108094155E+02  0.11744717303E+03  0.77658239723E+02 0.  0.
      -11    1    3    3    0    0 -0.37533001350E+01 -0.18867426652E+01 -0.14324859291E+02  0.14928116208E+02  0.00000000000E+00 0.  1.
       12    1    3    3    0    0  0.37533001350E+01  0.18867426652E+01  0.10243295345E+03  0.10251905682E+03  0.00000000000E+00 0. -1.
</event>
<event>
 5   1  0.7748900E+01  0.8040000E+02  0.7957747E-01  0.1297830E+00
       -1   -1    0    0    0  501  0.00000000000E+00  0.00000000000E+00  0.74743523017E+01  0.74743523017E+01  0.00000000000E+00 0.  1.
        2   -1    0    0  501    0  0.00000000000E+00  0.00000000000E+00 -0.23760913324E+03  0.23760913324E+03  0.00000000000E+00 0. -1.
       24    2    1    2    0    0  0.00000000000E+00  0.00000000000E+00 -0.23013478094E+03  0.24508348555E+03  0.84284621894E+02 0.  0.
      -11    1    3    3    0    0 -0.36468793192E+02  0.35149643480E+00 -0.53666636953E+02  0.64886087480E+02  0.00000000000E+00 0.  1.
       12    1    3    3    0    0  0.36468793192E+02 -0.35149643480E+00 -0.17646814399E+03  0.18019739807E+03  0.00000000000E+00 0. -1.
</event>
<event>
 5   1  0.7748900E+01  0.8040000E+02  0.7957747E-01  0.1297830E+00
       -3   -1    0    0    0  501  0.00000000000E+00  0.00000000000E+00  0.54262643413E+01  0.54262643413E+01  0.00000000000E+00 0.  1.
        4   -1    0    0  501    0  0.00000000000E+00  0.00000000000E+00 -0.30245175713E+03  0.30245175713E+03  0.00000000000E+00 0. -1.
       24    2    1    2    0    0  0.00000000000E+00  0.00000000000E+00 -0.29702549279E+03  0.30787802147E+03  0.81023038321E+02 0.  0.
      -11    1    3    3    0    0  0.20307763083E+02 -0.34969623240E+02 -0.15774528292E+03  0.16284610549E+03  0.00000000000E+00 0.  1.
       12    1    3    3    0    0 -0.20307763083E+02  0.34969623240E+02 -0.13928020987E+03  0.14503191597E+03  0.00000000000E+00 0. -1.
</event>
<event>
 5   1  0.7748900E+01  0.8040000E+02  0.7957747E-01  0.1297830E+00
       -3   -1    0    0    0  501  0.00000000000E+00  0.00000000000E+00  0.19094418614E+02  0.19094418614E+02  0.00000000000E+00 0.  1.
        4   -1    0    0  501    0  0.00000000000E+00  0.00000000000E+00 -0.83187280425E+02  0.83187280425E+02  0.00000000000E+00 0. -1.
       24    2    1    2    0    0  0.00000000000E+00  0.00000000000E+00 -0.64092861811E+02  0.10228169904E+03  0.79709792517E+02 0.  0.
      -11    1    3    3    0    0 -0.17458343768E+02  0.17859009096E+02  0.78080097139E+01  0.26166829933E+02  0.00000000000E+00 0.  1.
       12    1    3    3    0    0  0.17458343768E+02 -0.17859009096E+02 -0.71900871525E+02  0.76114869106E+02  0.00000000000E+00 0. -1.
</event>
<event>
 5   2  0.7748900E+01  0.8040000E+02  0.7957747E-01  0.1297830E+00
       -2   -1    0    0    0  501  0.00000000000E+00  0.00000000000E+00  0.56967056569E+03  0.56967056569E+03  0.00000000000E+00 0.  1.
        1   -1    0    0  501    0  0.00000000000E+00  0.00000000000E+00 -0.27621114168E+01  0.27621114168E+01  0.00000000000E+00 0. -1.
      -24    2    1    2    0    0  0.00000000000E+00  0.00000000000E+00  0.56690845427E+03  0.57243267710E+03  0.79334571867E+02 0.  0.
       11    1    3    3    0    0 -0.11250672149E+02 -0.32038675255E+02  0.13550470908E+03  0.13969459731E+03  0.00000000000E+00 0. -1.
      -12    1    3    3    0    0  0.11250672149E+02  0.32038675255E+02  0.43140374519E+03  0.43273807979E+03  0.00000000000E+00 0.  1.
</event>
<event>
 5   1  0.7748900E+01  0.8040000E+02  0.7957747E-01  0.1297830E+00
        2   -1    0    0  501    0  0.00000000000E+00  0.00000000000E+00  0.23612832028E+04  0.23612832028E+04  0.00000000000E+00 0. -1.
       -1   -1    0    0    0  501  0.00000000000E+00  0.00000000000E+00 -0.69577762865E+00  0.69577762865E+00  0.00000000000E+00 0.  1.
       24    2    1    2    0    0  0.00000000000E+00  0.00000000000E+00  0.23605874252E+04  0.23619789805E+04  0.81066097166E+02 0.  0.
      -11    1    3    3    0    0  0.80828757110E+01 -0.23948821572E+02  0.25705450915E+03  0.25829421133E+03  0.00000000000E+00 0.  1.
       12    1    3    3    0    0 -0.80828757110E+01  0.23948821572E+02  0.21035329161E+04  0.21036847691E+04  0.00000000000E+00 0. -1.
</event>
<event>
 5   2  0.7748900E+01  0.8040000E+02  0.7957747E-01  0.1297830E+00
       -4   -1    0    0    0  501  0.00000000000E+00  0.00000000000E+00  0.32590078594E+01  0.32590078594E+01  0.00000000000E+00 0.  1.
        3   -1    0    0  501    0  0.00000000000E+00  0.00000000000E+00 -0.49725621622E+03  0.49725621622E+03  0.00000000000E+00 0. -1.
      -24    2    1    2    0    0  0.00000000000E+00  0.00000000000E+00 -0.49399720836E+03  0.50051522408E+03  0.80512406914E+02 0.  0.
       11    1    3    3    0    0  0.87925754952E+01  0.12442622219E+02 -0.47864046907E+03  0.47888289472E+03  0.00000000000E+00 0. -1.
      -12    1    3    3    0    0 -0.87925754952E+01 -0.12442622219E+02 -0.15356739291E+02  0.21632329352E+02  0.00000000000E+00 0.  1.
</event>
<event>
 5   1  0.7748900E+01  0.8040000E+02  0.7957747E-01  0.1297830E+00
        2   -1    0    0  501    0  0.00000000000E+00  0.00000000000E+00  0.42113341345E+03  0.42113341345E+03  0.00000000000E+00 0. -1.
       -1   -1    0    0    0  501  0.00000000000E+00  0.00000000000E+00 -0.40418410179E+01  0.40418410179E+01  0.00000000000E+00 0.  1.
       24    2    1    2    0    0  0.00000000000E+00  0.00000000000E+00  0.41709157243E+03  0.42517525446E+03  0.82514345528E+02 0.  0.
      -11    1    3    3    0    0  0.45385720892E+01 -0.29282709937E+01 -0.22121862487E+01  0.58367093144E+01  0.00000000000E+00 0.  1.
       12    1    3    3    0    0 -0.45385720892E+01  0.29282709937E+01  0.41930375868E+03  0.41933854515E+03  0.00000000000E+00 0. -1.
</event>
<event>
 5   2  0.7748900E+01  0.8040000E+02  0.7957747E-01  0.1297830E+00
       -2   -1    0    0    0  501  0.00000000000E+00  0.00000000000E+00  0.22401860125E+01  0.22401860125E+01  0.00000000000E+00 0.  1.
        1   -1    0    0  501    0  0.00000000000E+00  0.00000000000E+00 -0.76987132361E+03  0.76987132361E+03  0.00000000000E+00 0. -1.
      -24    2    1    2    0    0  0.00000000000E+00  0.00000000000E+00 -0.76763113760E+03  0.77211150962E+03  0.83057930881E+02 0.  0.
       11    1    3    3    0    0  0.28282508346E+02 -0.29643007178E+02 -0.32073454561E+03  0.32334077519E+03  0.00000000000E+00 0. -1.
      -12    1    3    3    0    0 -0.28282508346E+02  0.29643007178E+02 -0.44689659199E+03  0.44877073443E+03  0.00000000000E+00 0.  1.
</event>
<event>
 5   1  0.7748900E+01  0.8040000E+02  0.7957747E-01  0.1297830E+00
        4   -1    0    0  501    0  0.00000000000E+00  0.00000000000E+00  0.61376499772E+02  0.61376499772E+02  0.00000000000E+00 0. -1.
       -3   -1    0    0    0  501  0.00000000000E+00  0.00000000000E+00 -0.25381446874E+02  0.25381446874E+02  0.00000000000E+00 0.  1.
       24    2    1    2    0    0  0.00000000000E+00  0.00000000000E+00  0.35995052897E+02  0.86757946646E+02  0.78938567716E+02 0.  0.
      -11    1    3    3    0    0 -0.22235049246E+02 -0.29371031575E+02  0.33570403160E+02  0.49840012832E+02  0.00000000000E+00 0.  1.
       12    1    3    3    0    0  0.22235049246E+02  0.29371031575E+02  0.24246497377E+01  0.36917933814E+02  0.00000000000E+00 0. -1.
</event>
<event>
 5   1  0.7748900E+01  0.8040000E+02  0.7957747E-01  0.1297830E+00
       -1   -1    0    0    0  501  0.00000000000E+00  0.00000000000E+00  0.31633608711E+03  0.31633608711E+03  0.00000000000E+00 0.  1.
        2   -1    0    0  501    0  0.00000000000E+00  0.00000000000E+00 -0.52318437027E+01  0.52318437027E+01  0.00000000000E+00 0. -1.
       24    2    1    2    0    0  0.00000000000E+00  0.00000000000E+00  0.31110424340E+03  0.32156793081E+03  0.81363897775E+02 0.  0.
      -11    1    3    3    0    0  0.63240683464E+01  0.28218383633E+02  0.26864014913E+03  0.27019215522E+03  0.00000000000E+00 0.  1.
       12    1    3    3    0    0 -0.63240683464E+01 -0.28218383633E+02  0.42464094271E+02  0.51375775591E+02  0.00000000000E+00 0. -1.
</event>
<event>
 5   2  0.7748900E+01  0.8040000E+02  0.7957747E-01  0.1297830E+00
       -2   -1    0    0    0  501  0.00000000000E+00  0.00000000000E+00  0.34637450368E+01  0.34637450368E+01  0.00000000000E+00 0.  1.
        1   -1    0    0  501    0  0.00000000000E+00  0.00000000000E+00 -0.48594881400E+03  0.48594881400E+03  0.00000000000E+00 0. -1.
      -24    2    1    2    0    0  0.00000000000E+00  0.00000000000E+00 -0.48248506897E+03  0.48941255904E+03  0.82053709061E+02 0.  0.
       11    1    3    3    0    0  0.51230888840E+01 -0.14990768056E+02 -0.46696969867E+03  0.46723834243E+03  0.00000000000E+00 0. -1.
      -12    1    3    3    0    0 -0.51230888840E+01  0.14990768056E+02 -0.15515370300E+02  0.22174216608E+02  0.00000000000E+00 0.  1.
</event>
<event>
 5   1  0.7748900E+01  0.8040000E+02  0.7957747E-01  0.1297830E+00
       -1   -1    0    0    0  501  0.00000000000E+00  0.00000000000E+00  0.67919030185E+02  0.67919030185E+02  0.00000000000E+00 0.  1.
        2   -1    0    0  501    0  0.00000000000E+00  0.00000000000E+00 -0.23319624756E+02  0.23319624756E+02  0.00000000000E+00 0. -1.
       24    2    1    2    0    0  0.00000000000E+00  0.00000000000E+00  0.44599405429E+02  0.91238654942E+02  0.79595132960E+02 0.  0.
      -11    1    3    3    0    0 -0.14168159655E+02  0.32601547758E+02  0.42813025048E+02  0.55646678050E+02  0.00000000000E+00 0.  1.
       12    1    3    3    0    0  0.14168159655E+02 -0.32601547758E+02  0.17863803809E+01  0.35591976892E+02  0.00000000000E+00 0. -1.
</event>
<event>
 5   1  0.7748900E+01  0.8040000E+02  0.7957747E-01  0.1297830E+00
       -1   -1    0    0    0  501  0.00000000000E+00  0.00000000000E+00  0.76806306086E+02  0.76806306086E+02  0.00000000000E+00 0.  1.
        2   -1    0    0  501    0  0.00000000000E+00  0.00000000000E+00 -0.21221785726E+02  0.21221785726E+02  0.00000000000E+00 0. -1.
       24    2    1    2    0    0  0.00000000000E+00  0.00000000000E+00  0.55584520359E+02  0.98028091812E+02  0.80745698837E+02 0.  0.
      -11    1    3    3    0    0  0.23672485355E+02 -0.66269966519E+01  0.66672914411E+02  0.71060405034E+02  0.00000000000E+00 0.  1.
       12    1    3    3    0    0 -0.23672485355E+02  0.66269966519E+01 -0.11088394052E+02  0.26967686778E+02  0.00000000000E+00 0. -1.
</event>
<event>
 5   2  0.7748900E+01  0.8040000E+02  0.7957747E-01  0.1297830E+00
       -2   -1    0    0    0  501  0.00000000000E+00  0.00000000000E+00  0.69172598517E+02  0.69172598517E+02  0.00000000000E+00 0.  1.
        1   -1    0    0  501    0  0.00000000000E+00  0.00000000000E+00 -0.21809939436E+02  0.21809939436E+02  0.00000000000E+00 0. -1.
      -24    2    1    2    0    0  0.00000000000E+00  0.00000000000E+00  0.47362659081E+02  0.90982537953E+02  0.77682692648E+02 0.  0.
       11    1    3    3    0    0  0.11863833526E+02  0.46321818952E+01 -0.19294838293E+02  0.23119222301E+02  0.00000000000E+00 0. -1.
      -12    1    3    3    0    0 -0.11863833526E+02 -0.46321818952E+01  0.66657497374E+02  0.67863315652E+02  0.00000000000E+00 0.  1.
</event>
<event>
 5   1  0.7748900E+01  0.8040000E+02  0.7957747E-01  0.1297830E+00
        2   -1    0    0  501    0  0.00000000000E+00  0.00000000000E+00  0.46290522418E+01  0.46290522418E+01  0.00000000000E+00 0. -1.
       -1   -1    0    0    0  501  0.00000000000E+00  0.00000000000E+00 -0.35226350642E+03  0.35226350642E+03  0.00000000000E+00 0.  1.
       24    2    1    2    0    0  0.00000000000E+00  0.00000000000E+00 -0.34763445418E+03  0.35689255866E+03  0.80762520369E+02 0.  0.
      -11    1    3    3    0    0  0.10188845301E+02 -0.34591523216E+02 -0.25412465215E+03  0.25667045969E+03  0.00000000000E+00 0.  1.
       12    1    3    3    0    0 -0.10188845301E+02  0.34591523216E+02 -0.93509802025E+02  0.10022209897E+03  0.00000000000E+00 0. -1.
</event>
<event>
 5   1  0.7748900E+01  0.8040000E+02  0.7957747E-01  0.1297830E+00
       -1   -1    0    0    0  501  0.00000000000E+00  0.00000000000E+00  0.97816163708E+00  0.97816163708E+00  0.00000000000E+00 0.  1.
        2   -1    0    0  501    0  0.00000000000E+00  0.00000000000E+00 -0.18184926775E+04  0.18184926775E+04  0.00000000000E+00 0. -1.
       24    2    1    2    0    0  0.00000000000E+00  0.00000000000E+00 -0.18175145159E+04  0.18194708392E+04  0.84351165362E+02 0.  0.
      -11    1    3    3    0    0 -0.23235872660E+02 -0.33487055855E+02 -0.67495081633E+03  0.67618037028E+03  0.00000000000E+00 0.  1.
       12    1    3    3    0    0  0.23235872660E+02  0.33487055855E+02 -0.11425636996E+04  0.11432904689E+04  0.00000000000E+00 0. -1.
</event>
<event>
 5   2  0.7748900E+01  0.8040000E+02  0.7957747E-01  0.1297830E+00
        1   -1    0    0  501    0  0.00000000000E+00  0.00000000000E+00  0.72893363184E+03  0.72893363184E+03  0.00000000000E+00 0. -1.
       -2   -1    0    0    0  501  0.00000000000E+00  0.00000000000E+00 -0.22741085280E+01  0.22741085280E+01  0.00000000000E+00 0.  1.
      -24    2    1    2    0    0  0.00000000000E+00  0.00000000000E+00  0.72665952331E+03  0.73120774036E+03  0.81429090343E+02 0.  0.
       11    1    3    3    0    0 -0.28684416500E+01  0.18120207675E+02  0.68971443056E+03  0.68995837962E+03  0.00000000000E+00 0. -1.
      -12    1    3    3    0    0  0.28684416500E+01 -0.18120207675E+02  0.36945092746E+02  0.41249360743E+02  0.00000000000E+00 0.  1.
</event>
<event>
 5   2  0.7748900E+01  0.8040000E+02  0.7957747E-01  0.1297830E+00
       -2   -1    0    0    0  501  0.00000000000E+00  0.00000000000E+00  0.10416456869E+02  0.10416456869E+02  0.00000000000E+00 0.  1.
        1   -1    0    0  501    0  0.00000000000E+00  0.00000000000E+00 -0.15255978594E+03  0.15255978594E+03  0.00000000000E+00 0. -1.
      -24    2    1    2    0    0  0.00000000000E+00  0.00000000000E+00 -0.14214332907E+03  0.16297624281E+03  0.79727847838E+02 0.  0.
       11    1    3    3    0    0  0.50008878219E+01 -0.38183218978E+02 -0.92133956924E+02  0.99858064817E+02  0.00000000000E+00 0. -1.
      -12    1    3    3    0    0 -0.50008878219E+01  0.38183218978E+02 -0.50009372146E+02  0.63118177992E+02  0.00000000000E+00 0.  1.
</event>
<event>
 5   1  0.7748900E+01  0.8040000E+02  0.7957747E-01  0.1297830E+00
       -1   -1    0    0    0  501  0.00000000000E+00  0.00000000000E+00  0.56569371299E+03  0.56569371299E+03  0.00000000000E+00 0.  1.
        2   -1    0    0  501    0  0.00000000000E+00  0.00000000000E+00 -0.27688968943E+01  0.27688968943E+01  0.00000000000E+00 0. -1.
       24    2    1    2    0    0  0.00000000000E+00  0.00000000000E+00  0.56292481610E+03  0.56846260988E+03  0.79154218207E+02 0.  0.
      -11    1    3    3    0    0 -0.35919820109E+02  0.16615559947E+02  0.28007620778E+03  0.28285860862E+03  0.00000000000E+00 0.  1.
       12    1    3    3    0    0  0.35919820109E+02 -0.16615559947E+02  0.28284860832E+03  0.28560400126E+03  0.00000000000E+00 0. -1.
</event>
<event>
 5   1  0.7748900E+01  0.8040000E+02  0.7957747E-01  0.1297830E+00
       -1   -1    0    0    0  501  0.00000000000E+00  0.00000000000E+00  0.25384109323E+01  0.25384109323E+01  0.00000000000E+00 0.  1.
        2   -1    0    0  501    0  0.00000000000E+00  0.00000000000E+00 -0.65995759823E+03  0.65995759823E+03  0.00000000000E+00 0. -1.
       24    2    1    2    0    0  0.00000000000E+00  0.00000000000E+00 -0.65741918730E+03  0.66249600916E+03  0.81859479163E+02 0.  0.
      -11    1    3    3    0    0 -0.21793909652E+02 -0.18962917456E+02 -0.94055123220E+02  0.98391732073E+02  0.00000000000E+00 0.  1.
       12    1    3    3    0    0  0.21793909652E+02  0.18962917456E+02 -0.56336406408E+03  0.56410427709E+03  0.00000000000E+00 0. -1.
</event>
<event>
 5   1  0.7748900E+01  0.8040000E+02  0.7957747E-01  0.1297830E+00
        2   -1    0    0  501    0  0.00000000000E+00  0.00000000000E+00  0.24248657338E+03  0.24248657338E+03  0.00000000000E+00 0. -1.
       -1   -1    0    0    0  501  0.00000000000E+00  0.00000000000E+00 -0.68919585033E+01  0.68919585033E+01  0.00000000000E+00 0.  1.
       24    2    1    2    0    0  0.00000000000E+00  0.00000000000E+00  0.23559461488E+03  0.24937853188E+03  0.81760807269E+02 0.  0.
      -11    1    3    3    0    0  0.12136762767E+02 -0.38203404019E+02  0.93319184611E+02  0.10156412411E+03  0.00000000000E+00 0.  1.
       12    1    3    3    0    0 -0.12136762767E+02  0.38203404019E+02  0.14227543026E+03  0.14781440778E+03  0.00000000000E+00 0. -1.
</event>
<event>
 5   2  0.7748900E+01  0.8040000E+02  0.7957747E-01  0.1297830E+00
        1   -1    0    0  501    0  0.00000000000E+00  0.00000000000E+00  0.10718922683E+04  0.10718922683E+04  0.00000000000E+00 0. -1.
       -2   -1    0    0    0  501  0.00000000000E+00  0.00000000000E+00 -0.15517056713E+01  0.15517056713E+01  0.00000000000E+00 0.  1.
      -24    2    1    2    0    0  0.00000000000E+00  0.00000000000E+00  0.10703405626E+04  0.10734439740E+04  0.81566201620E+02 0.  0.
       11    1    3    3    0    0  0.25192462663E+02 -0.25401258858E+02  0.79285120935E+03  0.79365793910E+03  0.00000000000E+00 0. -1.
      -12    1    3    3    0    0 -0.25192462663E+02  0.25401258858E+02  0.27748935327E+03  0.27978603486E+03  0.00000000000E+00 0.  1.
</event>
<event>
 5   2  0.7748900E+01  0.8040000E+02  0.7957747E-01  0.1297830E+00
       -2   -1    0    0    0  501  0.00000000000E+00  0.00000000000E+00  0.15266821110E+03  0.15266821110E+03  0.00000000000E+00 0.  1.
        1   -1    0    0  501    0  0.00000000000E+00  0.00000000000E+00 -0.10307535969E+02  0.10307535969E+02  0.00000000000E+00 0. -1.
      -24    2    1    2    0    0  0.00000000000E+00  0.00000000000E+00  0.14236067513E+03  0.16297574707E+03  0.79338088639E+02 0.  0.
       11    1    3    3    0    0  0.17896475110E+02  0.91361421297E+01  0.91972442527E+00  0.20114641617E+02  0.00000000000E+00 0. -1.
      -12    1    3    3    0    0 -0.17896475110E+02 -0.91361421297E+01  0.14144095070E+03  0.14286110545E+03  0.00000000000E+00 0.  1.
</event>
<event>
 5   1  0.7748900E+01  0.8040000E+02  0.7957747E-01  0.1297830E+00
        2   -1    0    0  501    0  0.00000000000E+00  0.00000000000E+00  0.59641443121E+03  0.59641443121E+03  0.00000000000E+00 0. -1.
       -1   -1    0    0    0  501  0.00000000000E+00  0.00000000000E+00 -0.27732339154E+01  0.27732339154E+01  0.00000000000E+00 0.  1.
       24    2    1    2    0    0  0.00000000000E+00  0.00000000000E+00  0.59364119729E+03  0.59918766512E+03  0.81338717184E+02 0.  0.
      -11    1    3    3    0    0  0.32775084803E+02 -0.74169030548E+01  0.12806654184E+03  0.13240187225E+03  0.00000000000E+00 0.  1.
       12    1    3    3    0    0 -0.32775084803E+02  0.74169030548E+01  0.46557465545E+03  0.46678579287E+03  0.00000000000E+00 0. -1.
</event>
<event>
 5   2  0.7748900E+01  0.8040000E+02  0.7957747E-01  0.1297830E+00
       -4   -1    0    0    0  501  0.00000000000E+00  0.00000000000E+00  0.60604076564E+01  0.60604076564E+01  0.00000000000E+00 0.  1.
        3   -1    0    0  501    0  0.00000000000E+00  0.00000000000E+00 -0.27518181292E+03  0.27518181292E+03  0.00000000000E+00 0. -1.
      -24    2    1    2    0    0  0.00000000000E+00  0.00000000000E+00 -0.26912140526E+03  0.28124222057E+03  0.81675307551E+02 0.  0.
       11    1    3    3    0    0  0.64645862904E+00  0.38859250125E+02 -0.17774159448E+03  0.18194101692E+03  0.00000000000E+00 0. -1.
      -12    1    3    3    0    0 -0.64645862904E+00 -0.38859250125E+02 -0.91379810778E+02  0.99301203652E+02  0.00000000000E+00 0.  1.
</event>
<event>
 5   1  0.7748900E+01  0.8040000E+02  0.7957747E-01  0.1297830E+00
        2   -1    0    0  501    0  0.00000000000E+00  0.00000000000E+00  0.65860846299E+01  0.65860846299E+01  0.00000000000E+00 0. -1.
       -1   -1    0    0    0  501  0.00000000000E+00  0.00000000000E+00 -0.24205808413E+03  0.24205808413E+03  0.00000000000E+00 0.  1.
       24    2    1    2    0    0  0.00000000000E+00  0.00000000000E+00 -0.23547199950E+03  0.24864416876E+03  0.79855244723E+02 0.  0.
      -11    1    3    3    0    0  0.80450250075E+01  0.81266858646E-01 -0.23950804097E+03  0.23964313202E+03  0.00000000000E+00 0.  1.
       12    1    3    3    0    0 -0.80450250075E+01 -0.81266858646E-01  0.40360414737E+01  0.90010367431E+01  0.00000000000E+00 0. -1.
</event>
<event>
 5   1  0.7748900E+01  0.8040000E+02  0.7957747E-01  0.1297830E+00
        2   -1    0    0  501    0  0.00000000000E+00  0.00000000000E+00  0.22226238018E+02  0.22226238018E+02  0.00000000000E+00 0. -1.
       -1   -1    0    0    0  501  0.00000000000E+00  0.00000000000E+00 -0.74482141419E+02  0.74482141419E+02  0.00000000000E+00 0.  1.
       24    2    1    2    0    0  0.00000000000E+00  0.00000000000E+00 -0.52255903401E+02  0.96708379437E+02  0.81374634949E+02 0.  0.
      -11    1    3    3    0    0  0.28719596430E+02  0.88363060339E+00 -0.60363550978E+02  0.66853229606E+02  0.00000000000E+00 0.  1.
       12    1    3    3    0    0 -0.28719596430E+02 -0.88363060339E+00  0.81076475770E+01  0.29855149830E+02  0.00000000000E+00 0. -1.
</event>
<event>
 5   2  0.7748900E+01  0.8040000E+02  0.7957747E-01  0.1297830E+00
        1   -1    0    0  501    0  0.00000000000E+00  0.00000000000E+00  0.34245255185E+01  0.34245255185E+01  0.00000000000E+00 0. -1.
       -2   -1    0    0    0  501  0.00000000000E+00  0.00000000000E+00 -0.47694364248E+03  0.47694364248E+03  0.00000000000E+00 0.  1.
      -24    2    1    2    0    0  0.00000000000E+00  0.00000000000E+00 -0.47351911696E+03  0.48036816800E+03  0.80828353306E+02 0.  0.
       11    1    3    3    0    0 -0.34500141776E+02  0.75120965059E+01 -0.35361513580E+03  0.35537354381E+03  0.00000000000E+00 0. -1.
      -12    1    3    3    0    0  0.34500141776E+02 -0.75120965059E+01 -0.11990398116E+03  0.12499462418E+03  0.00000000000E+00 0.  1.
</event>
<event>
 5   1  0.7748900E+01  0.8040000E+02  0.7957747E-01  0.1297830E+00
        2   -1    0    0  501    0  0.00000000000E+00  0.00000000000E+00  0.14547878643E+03  0.14547878643E+03  0.00000000000E+00 0. -1.
       -1   -1    0    0    0  501  0.00000000000E+00  0.00000000000E+00 -0.11148108950E+02  0.11148108950E+02  0.00000000000E+00 0.  1.
       24    2    1    2    0    0  0.00000000000E+00  0.00000000000E+00  0.13433067748E+03  0.15662689538E+03  0.80543487904E+02 0.  0.
      -11    1    3    3    0    0 -0.19962092824E+02 -0.23163057094E+01 -0.70076921922E+00  0.20108244566E+02  0.00000000000E+00 0.  1.
       12    1    3    3    0    0  0.19962092824E+02  0.23163057094E+01  0.13503144670E+03  0.13651865081E+03  0.00000000000E+00 0. -1.
</event>
<event>
 5   2  0.7748900E+01  0.8040000E+02  0.7957747E-01  0.1297830E+00
       -4   -1    0    0    0  501  0.00000000000E+00  0.00000000000E+00  0.71689234084E+01  0.71689234084E+01  0.00000000000E+00 0.  1.
        3   -1    0    0  501    0  0.00000000000E+00  0.00000000000E+00 -0.21793527991E+03  0.21793527991E+03  0.00000000000E+00 0. -1.
      -24    2    1    2    0    0  0.00000000000E+00  0.00000000000E+00 -0.21076635650E+03  0.22510420332E+03  0.79053433313E+02 0.  0.
       11    1    3    3    0    0 -0.71810382449E+01  0.35534871635E+02 -0.15023161329E+03  0.15454394858E+03  0.00000000000E+00 0. -1.
      -12    1    3    3    0    0  0.71810382449E+01 -0.35534871635E+02 -0.60534743213E+02  0.70560254735E+02  0.00000000000E+00 0.  1.
</event>
<event>
 5   2  0.7748900E+01  0.8040000E+02  0.7957747E-01  0.1297830E+00
        1   -1    0    0  501    0  0.00000000000E+00  0.00000000000E+00  0.32814463101E+03  0.32814463101E+03  0.00000000000E+00 0. -1.
       -2   -1    0    0    0  501  0.00000000000E+00  0.00000000000E+00 -0.50285898056E+01  0.50285898056E+01  0.00000000000E+00 0.  1.
      -24    2    1    2    0    0  0.00000000000E+00  0.00000000000E+00  0.32311604120E+03  0.33317322081E+03  0.81242962679E+02 0.  0.
       11    1    3    3    0    0  0.56228756424E+00 -0.45311170869E+01  0.32708897033E+03  0.32712083655E+03  0.00000000000E+00 0. -1.
      -12    1    3    3    0    0 -0.56228756424E+00  0.45311170869E+01 -0.39729291345E+01  0.60523842631E+01  0.00000000000E+00 0.  1.
</event>
<event>
 5   1  0.7748900E+01  0.8040000E+02  0.7957747E-01  0.1297830E+00
        2   -1    0    0  501    0  0.00000000000E+00  0.00000000000E+00  0.36110618020E+03  0.36110618020E+03  0.00000000000E+00 0. -1.
       -1   -1    0    0    0  501  0.00000000000E+00  0.00000000000E+00 -0.42178080082E+01  0.42178080082E+01  0.00000000000E+00 0.  1.
       24    2    1    2    0    0  0.00000000000E+00  0.00000000000E+00  0.35688837220E+03  0.36532398821E+03  0.78053226421E+02 0.  0.
      -11    1    3    3    0    0 -0.12676874036E+02  0.13193258461E+02  0.17100323384E+02  0.25043687108E+02  0.00000000000E+00 0.  1.
       12    1    3    3    0    0  0.12676874036E+02 -0.13193258461E+02  0.33978804881E+03  0.34028030110E+03  0.00000000000E+00 0. -1.
</event>
<event>
 5   2  0.7748900E+01  0.8040000E+02  0.7957747E-01  0.1297830E+00
        1   -1    0    0  501    0  0.00000000000E+00  0.00000000000E+00  0.23945251765E+03  0.23945251765E+03  0.00000000000E+00 0. -1.
       -2   -1    0    0    0  501  0.00000000000E+00  0.00000000000E+00 -0.66281923998E+01  0.66281923998E+01  0.00000000000E+00 0.  1.
      -24    2    1    2    0    0  0.00000000000E+00  0.00000000000E+00  0.23282432525E+03  0.24608071005E+03  0.79677785050E+02 0.  0.
       11    1    3    3    0    0 -0.38988438676E+01  0.35488822081E+02  0.17100697140E+03  0.17469413769E+03  0.00000000000E+00 0. -1.
      -12    1    3    3    0    0  0.38988438676E+01 -0.35488822081E+02  0.61817353857E+02  0.71386572365E+02  0.00000000000E+00 0.  1.
</event>
<event>
 5   1  0.7748900E+01  0.8040000E+02  0.7957747E-01  0.1297830E+00
       -1   -1    0    0    0  501  0.00000000000E+00  0.00000000000E+00  0.16329095013E+02  0.16329095013E+02  0.00000000000E+00 0.  1.
        2   -1    0    0  501    0  0.00000000000E+00  0.00000000000E+00 -0.10220498890E+03  0.10220498890E+03  0.00000000000E+00 0. -1.
       24    2    1    2    0    0  0.00000000000E+00  0.00000000000E+00 -0.85875893887E+02  0.11853408391E+03  0.81704711604E+02 0.  0.
      -11    1    3    3    0    0 -0.20106797454E+02 -0.88006079536E+01  0.70487695024E+01  0.23052530354E+02  0.00000000000E+00 0.  1.
       12    1    3    3    0    0  0.20106797454E+02  0.88006079536E+01 -0.92924663389E+02  0.95481553560E+02  0.00000000000E+00 0. -1.
</event>
<event>
 5   2  0.7748900E+01  0.8040000E+02  0.7957747E-01  0.1297830E+00
       -2   -1    0    0    0  501  0.00000000000E+00  0.00000000000E+00  0.76114948605E+02  0.76114948605E+02  0.00000000000E+00 0.  1.
        1   -1    0    0  501    0  0.00000000000E+00  0.00000000000E+00 -0.21909865619E+02  0.21909865619E+02  0.00000000000E+00 0. -1.
      -24    2    1    2    0    0  0.00000000000E+00  0.00000000000E+00  0.54205082986E+02  0.98024814223E+02  0.81674189203E+02 0.  0.
       11    1    3    3    0    0 -0.26859659188E+02  0.17955141520E+02 -0.28744309754E+01  0.32435948455E+02  0.00000000000E+00 0. -1.
      -12    1    3    3    0    0  0.26859659188E+02 -0.17955141520E+02  0.57079513962E+02  0.65588865769E+02  0.00000000000E+00 0.  1.
</event>
<event>
 5   1  0.7748900E+01  0.8040000E+02  0.7957747E-01  0.1297830E+00
        2   -1    0    0  501    0  0.00000000000E+00  0.00000000000E+00  0.13657912701E+02  0.13657912701E+02  0.00000000000E+00 0. -1.
       -1   -1    0    0    0  501  0.00000000000E+00  0.00000000000E+00 -0.11699813681E+03  0.11699813681E+03  0.00000000000E+00 0.  1.
       24    2    1    2    0    0  0.00000000000E+00  0.00000000000E+00 -0.10334022411E+03  0.13065604951E+03  0.79948742047E+02 0.  0.
      -11    1    3    3    0    0 -0.21551548823E+01 -0.80955582600E+01 -0.11554740948E+03  0.11585070821E+03  0.00000000000E+00 0.  1.
       12    1    3    3    0    0  0.21551548823E+01  0.80955582600E+01  0.12207185374E+02  0.14805341295E+02  0.00000000000E+00 0. -1.
</event>
<event>
 5   2  0.7748900E+01  0.8040000E+02  0.7957747E-01  0.1297830E+00
       -2   -1    0    0    0  501  0.00000000000E+00  0.00000000000E+00  0.31959629405E+01  0.31959629405E+01  0.00000000000E+00 0.  1.
        1   -1    0    0  501    0  0.00000000000E+00  0.00000000000E+00 -0.49653410602E+03  0.49653410602E+03  0.00000000000E+00 0. -1.
      -24    2    1    2    0    0  0.00000000000E+00  0.00000000000E+00 -0.49333814308E+03  0.49973006897E+03  0.79671942403E+02 0.  0.
       11    1    3    3    0    0 -0.22707086812E+02  0.16330238955E+02 -0.42458893526E+03  0.42550916846E+03  0.00000000000E+00 0. -1.
      -12    1    3    3    0    0  0.22707086812E+02 -0.16330238955E+02 -0.68749207825E+02  0.74220900509E+02  0.00000000000E+00 0.  1.
</event>
<event>
 5   2  0.7748900E+01  0.8040000E+02  0.7957747E-01  0.1297830E+00
       -2   -1    0    0    0  501  0.00000000000E+00  0.00000000000E+00  0.53986256499E+01  0.53986256499E+01  0.00000000000E+00 0.  1.
        1   -1    0    0  501    0  0.00000000000E+00  0.00000000000E+00 -0.35822087077E+03  0.35822087077E+03  0.00000000000E+00 0. -1.
      -24    2    1    2    0    0  0.00000000000E+00  0.00000000000E+00 -0.35282224512E+03  0.36361949642E+03  0.87952268447E+02 0.  0.
       11    1    3    3    0    0  0.26026982677E+02  0.35788778639E+01 -0.32221056746E+03  0.32327985087E+03  0.00000000000E+00 0. -1.
      -12    1    3    3    0    0 -0.26026982677E+02 -0.35788778639E+01 -0.30611677655E+02  0.40339645548E+02  0.00000000000E+00 0.  1.
</event>
<event>
 5   1  0.7748900E+01  0.8040000E+02  0.7957747E-01  0.1297830E+00
       -1   -1    0    0    0  501  0.00000000000E+00  0.00000000000E+00  0.10035881072E+02  0.10035881072E+02  0.00000000000E+00 0.  1.
        2   -1    0    0  501    0  0.00000000000E+00  0.00000000000E+00 -0.16810992656E+03  0.16810992656E+03  0.00000000000E+00 0. -1.
       24    2    1    2    0    0  0.00000000000E+00  0.00000000000E+00 -0.15807404548E+03  0.17814580763E+03  0.82149406084E+02 0.  0.
      -11    1    3    3    0    0 -0.11627308027E+02  0.16713929359E+02 -0.16774643803E+01  0.20429479027E+02  0.00000000000E+00 0.  1.
       12    1    3    3    0    0  0.11627308027E+02 -0.16713929359E+02 -0.15639658110E+03  0.15771632860E+03  0.00000000000E+00 0. -1.
</event>
<event>
 5   2  0.7748900E+01  0.8040000E+02  0.7957747E-01  0.1297830E+00
        1   -1    0    0  501    0  0.00000000000E+00  0.00000000000E+00  0.13060343750E+04  0.13060343750E+04  0.00000000000E+00 0. -1.
       -2   -1    0    0    0  501  0.00000000000E+00  0.00000000000E+00 -0.12904429434E+01  0.12904429434E+01  0.00000000000E+00 0.  1.
      -24    2    1    2    0    0  0.00000000000E+00  0.00000000000E+00  0.13047439320E+04  0.13073248179E+04  0.82106341851E+02 0.  0.
       11    1    3    3    0    0  0.15844058962E+02  0.25253996348E+02  0.11017555710E+04  0.11021588528E+04  0.00000000000E+00 0. -1.
      -12    1    3    3    0    0 -0.15844058962E+02 -0.25253996348E+02  0.20298836099E+03  0.20516596509E+03  0.00000000000E+00 0.  1.
</event>
<event>
 5   2  0.7748900E+01  0.8040000E+02  0.7957747E-01  0.1297830E+00
       -4   -1    0    0    0  501  0.00000000000E+00  0.00000000000E+00  0.53011619734E+02  0.53011619734E+02  0.00000000000E+00 0.  1.
        3   -1    0    0  501    0  0.00000000000E+00  0.00000000000E+00 -0.32489326233E+02  0.32489326233E+02  0.00000000000E+00 0. -1.
      -24    2    1    2    0    0  0.00000000000E+00  0.00000000000E+00  0.20522293502E+02  0.85500945967E+02  0.83001489328E+02 0.  0.
       11    1    3    3    0    0  0.40434944819E+02 -0.91976434201E+01  0.11963298309E+02  0.43159030497E+02  0.00000000000E+00 0. -1.
      -12    1    3    3    0    0 -0.40434944819E+02  0.91976434201E+01  0.85589951924E+01  0.42341915470E+02  0.00000000000E+00 0.  1.
</event>
<event>
 5   2  0.7748900E+01  0.8040000E+02  0.7957747E-01  0.1297830E+00
       -2   -1    0    0    0  501  0.00000000000E+00  0.00000000000E+00  0.20397808833E+02  0.20397808833E+02  0.00000000000E+00 0.  1.
        1   -1    0    0  501    0  0.00000000000E+00  0.00000000000E+00 -0.68303549491E+02  0.68303549491E+02  0.00000000000E+00 0. -1.
      -24    2    1    2    0    0  0.00000000000E+00  0.00000000000E+00 -0.47905740658E+02  0.88701358323E+02  0.74652334059E+02 0.  0.
       11    1    3    3    0    0 -0.27408628835E+02 -0.25334664229E+02 -0.24434929510E+02  0.44611029200E+02  0.00000000000E+00 0. -1.
      -12    1    3    3    0    0  0.27408628835E+02  0.25334664229E+02 -0.23470811148E+02  0.44090329123E+02  0.00000000000E+00 0.  1.
</event>
<event>
 5   2  0.7748900E+01  0.8040000E+02  0.7957747E-01  0.1297830E+00
        1   -1    0    0  501    0  0.00000000000E+00  0.00000000000E+00  0.17607761239E+04  0.17607761239E+04  0.00000000000E+00 0. -1.
       -2   -1    0    0    0  501  0.00000000000E+00  0.00000000000E+00 -0.10017596555E+01  0.10017596555E+01  0.00000000000E+00 0.  1.
      -24    2    1    2    0    0  0.00000000000E+00  0.00000000000E+00  0.17597743643E+04  0.17617778836E+04  0.83997011455E+02 0.  0.
       11    1    3    3    0    0 -0.49649872348E+01  0.11065803792E+02  0.17232445133E+04  0.17232871948E+04  0.00000000000E+00 0. -1.
      -12    1    3    3    0    0  0.49649872348E+01 -0.11065803792E+02  0.36529851011E+02  0.38490688832E+02  0.00000000000E+00 0.  1.
</event>
<event>
 5   2  0.7748900E+01  0.8040000E+02  0.7957747E-01  0.1297830E+00
       -2   -1    0    0    0  501  0.00000000000E+00  0.00000000000E+00  0.23396358733E+02  0.23396358733E+02  0.00000000000E+00 0.  1.
        1   -1    0    0  501    0  0.00000000000E+00  0.00000000000E+00 -0.75083238974E+02  0.75083238974E+02  0.00000000000E+00 0. -1.
      -24    2    1    2    0    0  0.00000000000E+00  0.00000000000E+00 -0.51686880241E+02  0.98479597708E+02  0.83825399347E+02 0.  0.
       11    1    3    3    0    0 -0.15119034626E+02 -0.25438855463E+02 -0.60713059426E+02  0.67541070174E+02  0.00000000000E+00 0. -1.
      -12    1    3    3    0    0  0.15119034626E+02  0.25438855463E+02  0.90261791854E+01  0.30938527534E+02  0.00000000000E+00 0.  1.
</event>
<event>
 5   2  0.7748900E+01  0.8040000E+02  0.7957747E-01  0.1297830E+00
       -2   -1    0    0    0  501  0.00000000000E+00  0.00000000000E+00  0.34905518552E+02  0.34905518552E+02  0.00000000000E+00 0.  1.
        1   -1    0    0  501    0  0.00000000000E+00  0.00000000000E+00 -0.46532121004E+02  0.46532121004E+02  0.00000000000E+00 0. -1.
      -24    2    1    2    0    0  0.00000000000E+00  0.00000000000E+00 -0.11626602452E+02  0.81437639557E+02  0.80603419605E+02 0.  0.
       11    1    3    3    0    0  0.11801548720E+02 -0.28963849652E+02 -0.31493812016E+02  0.44385147675E+02  0.00000000000E+00 0. -1.
      -12    1    3    3    0    0 -0.11801548720E+02  0.28963849652E+02  0.19867209563E+02  0.37052491882E+02  0.00000000000E+00 0.  1.
</event>
<event>
 5   2  0.7748900E+01  0.8040000E+02  0.7957747E-01  0.1297830E+00
       -2   -1    0    0    0  501  0.00000000000E+00  0.00000000000E+00  0.50533262079E+00  0.50533262079E+00  0.00000000000E+00 0.  1.
        1   -1    0    0  501    0  0.00000000000E+00  0.00000000000E+00 -0.25863855813E+04  0.25863855813E+04  0.00000000000E+00 0. -1.
      -24    2    1    2    0    0  0.00000000000E+00  0.00000000000E+00 -0.25858802487E+04  0.25868909139E+04  0.72304495135E+02 0.  0.
       11    1    3    3    0    0 -0.32811649505E+01 -0.29407117750E+02 -0.20360845346E+04  0.20362995302E+04  0.00000000000E+00 0. -1.
      -12    1    3    3    0    0  0.32811649505E+01  0.29407117750E+02 -0.54979571403E+03  0.55059138368E+03  0.00000000000E+00 0.  1.
</event>
<event>
 5   1  0.7748900E+01  0.8040000E+02  0.7957747E-01  0.1297830E+00
        2   -1    0    0  501    0  0.00000000000E+00  0.00000000000E+00  0.81280416128E+03  0.81280416128E+03  0.00000000000E+00 0. -1.
       -1   -1    0    0    0  501  0.00000000000E+00  0.00000000000E+00 -0.19862825599E+01  0.19862825599E+01  0.00000000000E+00 0.  1.
       24    2    1    2    0    0  0.00000000000E+00  0.00000000000E+00  0.81081787872E+03  0.81479044384E+03  0.80360655302E+02 0.  0.
      -11    1    3    3    0    0 -0.16000743661E+01 -0.25157537901E+02  0.88165179245E+02  0.91698204904E+02  0.00000000000E+00 0.  1.
       12    1    3    3    0    0  0.16000743661E+01  0.25157537901E+02  0.72265269947E+03  0.72309223894E+03  0.00000000000E+00 0. -1.
</event>
<event>
 5   1  0.7748900E+01  0.8040000E+02  0.7957747E-01  0.1297830E+00
       -1   -1    0    0    0  501  0.00000000000E+00  0.00000000000E+00  0.33127019948E+01  0.33127019948E+01  0.00000000000E+00 0.  1.
        2   -1    0    0  501    0  0.00000000000E+00  0.00000000000E+00 -0.50559730053E+03  0.50559730053E+03  0.00000000000E+00 0. -1.
       24    2    1    2    0    0  0.00000000000E+00  0.00000000000E+00 -0.50228459853E+03  0.50891000252E+03  0.81850917796E+02 0.  0.
      -11    1    3    3    0    0  0.14502141301E+02  0.10624344282E+02 -0.22551736985E+02  0.28840416688E+02  0.00000000000E+00 0.  1.
       12    1    3    3    0    0 -0.14502141301E+02 -0.10624344282E+02 -0.47973286155E+03  0.48006958583E+03  0.00000000000E+00 0. -1.
</event>
<event>
 5   1  0.7748900E+01  0.8040000E+02  0.7957747E-01  0.1297830E+00
        2   -1    0    0  501    0  0.00000000000E+00  0.00000000000E+00  0.21993352945E+03  0.21993352945E+03  0.00000000000E+00 0. -1.
       -1   -1    0    0    0  501  0.00000000000E+00  0.00000000000E+00 -0.71309037331E+01  0.71309037331E+01  0.00000000000E+00 0.  1.
       24    2    1    2    0    0  0.00000000000E+00  0.00000000000E+00  0.21280262572E+03  0.22706443318E+03  0.79204162168E+02 0.  0.
      -11    1    3    3    0    0 -0.23837403276E+02  0.93751640966E+01  0.19815176063E+02  0.32384513261E+02  0.00000000000E+00 0.  1.
       12    1    3    3    0    0  0.23837403276E+02 -0.93751640966E+01  0.19298744966E+03  0.19467991992E+03  0.00000000000E+00 0. -1.
</event>
<event>
 5   1  0.7748900E+01  0.8040000E+02  0.7957747E-01  0.1297830E+00
       -1   -1    0    0    0  501  0.00000000000E+00  0.00000000000E+00  0.12582014798E+02  0.12582014798E+02  0.00000000000E+00 0.  1.
        2   -1    0    0  501    0  0.00000000000E+00  0.00000000000E+00 -0.14053175570E+03  0.14053175570E+03  0.00000000000E+00 0. -1.
       24    2    1    2    0    0  0.00000000000E+00  0.00000000000E+00 -0.12794974090E+03  0.15311377049E+03  0.84099289645E+02 0.  0.
      -11    1    3    3    0    0 -0.75998981569E+01 -0.26485521740E+02 -0.61449326873E+01  0.28231215198E+02  0.00000000000E+00 0.  1.
       12    1    3    3    0    0  0.75998981569E+01  0.26485521740E+02 -0.12180480821E+03  0.12488255530E+03  0.00000000000E+00 0. -1.
</event>
<event>
 5   1  0.7748900E+01  0.8040000E+02  0.7957747E-01  0.1297830E+00
       -1   -1    0    0    0  501  0.00000000000E+00  0.00000000000E+00  0.14361619933E+03  0.14361619933E+03  0.00000000000E+00 0.  1.
        2   -1    0    0  501    0  0.00000000000E+00  0.00000000000E+00 -0.12385821110E+02  0.12385821110E+02  0.00000000000E+00 0. -1.
       24    2    1    2    0    0  0.00000000000E+00  0.00000000000E+00  0.13123037822E+03  0.15600202044E+03  0.84351752876E+02 0.  0.
      -11    1    3    3    0    0 -0.80725827503E+01  0.29657769364E+02  0.11902651663E+03  0.12293112517E+03  0.00000000000E+00 0.  1.
       12    1    3    3    0    0  0.80725827503E+01 -0.29657769364E+02  0.12203861593E+02  0.33070895266E+02  0.00000000000E+00 0. -1.
</event>
<event>
 5   2  0.7748900E+01  0.8040000E+02  0.7957747E-01  0.1297830E+00
       -2   -1    0    0    0  501  0.00000000000E+00  0.00000000000E+00  0.32698278157E+01  0.32698278157E+01  0.00000000000E+00 0.  1.
        1   -1    0    0  501    0  0.00000000000E+00  0.00000000000E+00 -0.49237105126E+03  0.49237105126E+03  0.00000000000E+00 0. -1.
      -24    2    1    2    0    0  0.00000000000E+00  0.00000000000E+00 -0.48910122345E+03  0.49564087908E+03  0.80248827008E+02 0.  0.
       11    1    3    3    0    0 -0.26848086665E+02 -0.19098008629E+02 -0.38598855211E+03  0.38739219926E+03  0.00000000000E+00 0. -1.
      -12    1    3    3    0    0  0.26848086665E+02  0.19098008629E+02 -0.10311267134E+03  0.10824867982E+03  0.00000000000E+00 0.  1.
</event>
<event>
 5   1  0.7748900E+01  0.8040000E+02  0.7957747E-01  0.1297830E+00
        2   -1    0    0  501    0  0.00000000000E+00  0.00000000000E+00  0.55845490224E+03  0.55845490224E+03  0.00000000000E+00 0. -1.
       -1   -1    0    0    0  501  0.00000000000E+00  0.00000000000E+00 -0.26937086312E+01  0.26937086312E+01  0.00000000000E+00 0.  1.
       24    2    1    2    0    0  0.00000000000E+00  0.00000000000E+00  0.55576119360E+03  0.56114861087E+03  0.77570994329E+02 0.  0.
      -11    1    3    3    0    0 -0.16917963020E+02  0.30136436765E+02  0.15053496155E+03  0.15445127692E+03  0.00000000000E+00 0.  1.
       12    1    3    3    0    0  0.16917963020E+02 -0.30136436765E+02  0.40522623206E+03  0.40669733395E+03  0.00000000000E+00 0. -1.
</event>
<event>
 5   1  0.7748900E+01  0.8040000E+02  0.7957747E-01  0.1297830E+00
        2   -1    0    0  501    0  0.00000000000E+00  0.00000000000E+00  0.38450453481E+01  0.38450453481E+01  0.00000000000E+00 0. -1.
       -1   -1    0    0    0  501  0.00000000000E+00  0.00000000000E+00 -0.40668045669E+03  0.40668045669E+03  0.00000000000E+00 0.  1.
       24    2    1    2    0    0  0.00000000000E+00  0.00000000000E+00 -0.40283541134E+03  0.41052550204E+03  0.79087414881E+02 0.  0.
      -11    1    3    3    0    0 -0.13618294991E+02  0.10954525180E+02 -0.38554382714E+03  0.38593976502E+03  0.00000000000E+00 0.  1.
       12    1    3    3    0    0  0.13618294991E+02 -0.10954525180E+02 -0.17291584204E+02  0.24585737017E+02  0.00000000000E+00 0. -1.
</event>
<event>
 5   1  0.7748900E+01  0.8040000E+02  0.7957747E-01  0.1297830E+00
       -1   -1    0    0    0  501  0.00000000000E+00  0.00000000000E+00  0.84536036081E+01  0.84536036081E+01  0.00000000000E+00 0.  1.
        2   -1    0    0  501    0  0.00000000000E+00  0.00000000000E+00 -0.19010610703E+03  0.19010610703E+03  0.00000000000E+00 0. -1.
       24    2    1    2    0    0  0.00000000000E+00  0.00000000000E+00 -0.18165250342E+03  0.19855971064E+03  0.80176846341E+02 0.  0.
      -11    1    3    3    0    0  0.90339310944E+01  0.30658912896E+02 -0.30901545190E+02  0.44457691642E+02  0.00000000000E+00 0.  1.
       12    1    3    3    0    0 -0.90339310944E+01 -0.30658912896E+02 -0.15075095823E+03  0.15410201900E+03  0.00000000000E+00 0. -1.
</event>
<event>
 5   1  0.7748900E+01  0.8040000E+02  0.7957747E-01  0.1297830E+00
        2   -1    0    0  501    0  0.00000000000E+00  0.00000000000E+00  0.31674780906E+02  0.31674780906E+02  0.00000000000E+00 0. -1.
       -1   -1    0    0    0  501  0.00000000000E+00  0.00000000000E+00 -0.62079054758E+02  0.62079054758E+02  0.00000000000E+00 0.  1.
       24    2    1    2    0    0  0.00000000000E+00  0.00000000000E+00 -0.30404273853E+02  0.93753835664E+02  0.88686875203E+02 0.  0.
      -11    1    3    3    0    0 -0.26470241828E+02  0.24410795687E+02 -0.42560853313E+02  0.55749321818E+02  0.00000000000E+00 0.  1.
       12    1    3    3    0    0  0.26470241828E+02 -0.24410795687E+02  0.12156579460E+02  0.38004513846E+02  0.00000000000E+00 0. -1.
</event>
<event>
 5   1  0.7748900E+01  0.8040000E+02  0.7957747E-01  0.1297830E+00
       -1   -1    0    0    0  501  0.00000000000E+00  0.00000000000E+00  0.58746309587E+02  0.58746309587E+02  0.00000000000E+00 0.  1.
        2   -1    0    0  501    0  0.00000000000E+00  0.00000000000E+00 -0.28081050581E+02  0.28081050581E+02  0.00000000000E+00 0. -1.
       24    2    1    2    0    0  0.00000000000E+00  0.00000000000E+00  0.30665259006E+02  0.86827360168E+02  0.81231966392E+02 0.  0.
      -11    1    3    3    0    0  0.13113528323E+02  0.20388965865E+02  0.50165440477E+02  0.55715760538E+02  0.00000000000E+00 0.  1.
       12    1    3    3    0    0 -0.13113528323E+02 -0.20388965865E+02 -0.19500181471E+02  0.31111599630E+02  0.00000000000E+00 0. -1.
</event>
<event>
 5   1  0.7748900E+01  0.8040000E+02  0.7957747E-01  0.1297830E+00
       -1   -1    0    0    0  501  0.00000000000E+00  0.00000000000E+00  0.14871708035E+03  0.14871708035E+03  0.00000000000E+00 0.  1.
        2   -1    0    0  501    0  0.00000000000E+00  0.00000000000E+00 -0.10728231363E+02  0.10728231363E+02  0.00000000000E+00 0. -1.
       24    2    1    2    0    0  0.00000000000E+00  0.00000000000E+00  0.13798884899E+03  0.15944531171E+03  0.79886700913E+02 0.  0.
      -11    1    3    3    0    0 -0.21211264646E+02  0.33412269621E+02  0.79774785280E+02  0.89052309771E+02  0.00000000000E+00 0.  1.
       12    1    3    3    0    0  0.21211264646E+02 -0.33412269621E+02  0.58214063707E+02  0.70393001942E+02  0.00000000000E+00 0. -1.
</event>
<event>
 5   2  0.7748900E+01  0.8040000E+02  0.7957747E-01  0.1297830E+00
        1   -1    0    0  501    0  0.00000000000E+00  0.00000000000E+00  0.63898938268E+03  0.63898938268E+03  0.00000000000E+00 0. -1.
       -2   -1    0    0    0  501  0.00000000000E+00  0.00000000000E+00 -0.26155625142E+01  0.26155625142E+01  0.00000000000E+00 0.  1.
      -24    2    1    2    0    0  0.00000000000E+00  0.00000000000E+00  0.63637382017E+03  0.64160494519E+03  0.81763480266E+02 0.  0.
       11    1    3    3    0    0  0.34441573760E+02 -0.21907740099E+02  0.33598716486E+03  0.33845759857E+03  0.00000000000E+00 0. -1.
      -12    1    3    3    0    0 -0.34441573760E+02  0.21907740099E+02  0.30038665531E+03  0.30314734662E+03  0.00000000000E+00 0.  1.
</event>
<event>
 5   1  0.7748900E+01  0.8040000E+02  0.7957747E-01  0.1297830E+00
       -1   -1    0    0    0  501  0.00000000000E+00  0.00000000000E+00  0.76871157447E+01  0.76871157447E+01  0.00000000000E+00 0.  1.
        2   -1    0    0  501    0  0.00000000000E+00  0.00000000000E+00 -0.20566097483E+03  0.20566097483E+03  0.00000000000E+00 0. -1.
       24    2    1    2    0    0  0.00000000000E+00  0.00000000000E+00 -0.19797385909E+03  0.21334809058E+03  0.79522065308E+02 0.  0.
      -11    1    3    3    0    0 -0.55702184908E+00  0.39742783175E+02 -0.10185225187E+03  0.10933288755E+03  0.00000000000E+00 0.  1.
       12    1    3    3    0    0  0.55702184908E+00 -0.39742783175E+02 -0.96121607217E+02  0.10401520303E+03  0.00000000000E+00 0. -1.
</event>
<event>
 5   1  0.7748900E+01  0.8040000E+02  0.7957747E-01  0.1297830E+00
       -1   -1    0    0    0  501  0.00000000000E+00  0.00000000000E+00  0.19712349907E+02  0.19712349907E+02  0.00000000000E+00 0.  1.
        2   -1    0    0  501    0  0.00000000000E+00  0.00000000000E+00 -0.85884439324E+02  0.85884439324E+02  0.00000000000E+00 0. -1.
       24    2    1    2    0    0  0.00000000000E+00  0.00000000000E+00 -0.66172089418E+02  0.10559678923E+03  0.82291776490E+02 0.  0.
      -11    1    3    3    0    0 -0.51889667323E+01 -0.35798416855E+01  0.19088982519E+02  0.20102982262E+02  0.00000000000E+00 0.  1.
       12    1    3    3    0    0  0.51889667323E+01  0.35798416855E+01 -0.85261071936E+02  0.85493806968E+02  0.00000000000E+00 0. -1.
</event>
<event>
 5   2  0.7748900E+01  0.8040000E+02  0.7957747E-01  0.1297830E+00
       -4   -1    0    0    0  501  0.00000000000E+00  0.00000000000E+00  0.12393670672E+03  0.12393670672E+03  0.00000000000E+00 0.  1.
        3   -1    0    0  501    0  0.00000000000E+00  0.00000000000E+00 -0.13464470889E+02  0.13464470889E+02  0.00000000000E+00 0. -1.
      -24    2    1    2    0    0  0.00000000000E+00  0.00000000000E+00  0.11047223584E+03  0.13740117761E+03  0.81700481755E+02 0.  0.
       11    1    3    3    0    0  0.15497588642E+02  0.19473797835E+02  0.75781585693E+00  0.24899364263E+02  0.00000000000E+00 0. -1.
      -12    1    3    3    0    0 -0.15497588642E+02 -0.19473797835E+02  0.10971441998E+03  0.11250181335E+03  0.00000000000E+00 0.  1.
</event>
<event>
 5   2  0.7748900E+01  0.8040000E+02  0.7957747E-01  0.1297830E+00
       -2   -1    0    0    0  501  0.00000000000E+00  0.00000000000E+00  0.20916295793E+03  0.20916295793E+03  0.00000000000E+00 0.  1.
        1   -1    0    0  501    0  0.00000000000E+00  0.00000000000E+00 -0.77814031561E+01  0.77814031561E+01  0.00000000000E+00 0. -1.
      -24    2    1    2    0    0  0.00000000000E+00  0.00000000000E+00  0.20138155478E+03  0.21694436109E+03  0.80686586271E+02 0.  0.
       11    1    3    3    0    0 -0.28235591863E+02  0.67462358097E+01  0.25366960303E+02  0.38551822531E+02  0.00000000000E+00 0. -1.
      -12    1    3    3    0    0  0.28235591863E+02 -0.67462358097E+01  0.17601459447E+03  0.17839253856E+03  0.00000000000E+00 0.  1.
</event>
<event>
 5   1  0.7748900E+01  0.8040000E+02  0.7957747E-01  0.1297830E+00
       -1   -1    0    0    0  501  0.00000000000E+00  0.00000000000E+00  0.17908345301E+01  0.17908345301E+01  0.00000000000E+00 0.  1.
        2   -1    0    0  501    0  0.00000000000E+00  0.00000000000E+00 -0.87412512357E+03  0.87412512357E+03  0.00000000000E+00 0. -1.
       24    2    1    2    0    0  0.00000000000E+00  0.00000000000E+00 -0.87233428904E+03  0.87591595810E+03  0.79130612406E+02 0.  0.
      -11    1    3    3    0    0 -0.13016171880E+02 -0.26255314447E+02 -0.14191444315E+03  0.14490849333E+03  0.00000000000E+00 0.  1.
       12    1    3    3    0    0  0.13016171880E+02  0.26255314447E+02 -0.73041984589E+03  0.73100746476E+03  0.00000000000E+00 0. -1.
</event>
<event>
 5   2  0.7748900E+01  0.8040000E+02  0.7957747E-01  0.1297830E+00
       -2   -1    0    0    0  501  0.00000000000E+00  0.00000000000E+00  0.73017648907E+01  0.73017648907E+01  0.00000000000E+00 0.  1.
        1   -1    0    0  501    0  0.00000000000E+00  0.00000000000E+00 -0.23069726096E+03  0.23069726096E+03  0.00000000000E+00 0. -1.
      -24    2    1    2    0    0  0.00000000000E+00  0.00000000000E+00 -0.22339549607E+03  0.23799902585E+03  0.82085252280E+02 0.  0.
       11    1    3    3    0    0  0.16794091843E+02  0.37322425461E+02 -0.12063066757E+03  0.12738431191E+03  0.00000000000E+00 0. -1.
      -12    1    3    3    0    0 -0.16794091843E+02 -0.37322425461E+02 -0.10276482851E+03  0.11061471394E+03  0.00000000000E+00 0.  1.
</event>
<event>
 5   1  0.7748900E+01  0.8040000E+02  0.7957747E-01  0.1297830E+00
        2   -1    0    0  501    0  0.00000000000E+00  0.00000000000E+00  0.65802117581E+03  0.65802117581E+03  0.00000000000E+00 0. -1.
       -1   -1    0    0    0  501  0.00000000000E+00  0.00000000000E+00 -0.25356188982E+01  0.25356188982E+01  0.00000000000E+00 0.  1.
       24    2    1    2    0    0  0.00000000000E+00  0.00000000000E+00  0.65548555692E+03  0.66055679471E+03  0.81694330986E+02 0.  0.
      -11    1    3    3    0    0 -0.32663622903E+02  0.24452272302E+02  0.34322231723E+03  0.34563909636E+03  0.00000000000E+00 0.  1.
       12    1    3    3    0    0  0.32663622903E+02 -0.24452272302E+02  0.31226323968E+03  0.31491769836E+03  0.00000000000E+00 0. -1.
</event>
<event>
 5   1  0.7748900E+01  0.8040000E+02  0.7957747E-01  0.1297830E+00
        2   -1    0    0  501    0  0.00000000000E+00  0.00000000000E+00  0.18452487867E+02  0.18452487867E+02  0.00000000000E+00 0. -1.
       -1   -1    0    0    0  501  0.00000000000E+00  0.00000000000E+00 -0.87647710552E+02  0.87647710552E+02  0.00000000000E+00 0.  1.
       24    2    1    2    0    0  0.00000000000E+00  0.00000000000E+00 -0.69195222685E+02  0.10610019842E+03  0.80431792609E+02 0.  0.
      -11    1    3    3    0    0  0.39395223855E+02 -0.79651472755E+01 -0.36411637793E+02  0.54233150383E+02  0.00000000000E+00 0.  1.
       12    1    3    3    0    0 -0.39395223855E+02  0.79651472755E+01 -0.32783584892E+02  0.51867048037E+02  0.00000000000E+00 0. -1.
</event>
<event>
 5   1  0.7748900E+01  0.8040000E+02  0.7957747E-01  0.1297830E+00
       -1   -1    0    0    0  501  0.00000000000E+00  0.00000000000E+00  0.14181560338E+01  0.14181560338E+01  0.00000000000E+00 0.  1.
        2   -1    0    0  501    0  0.00000000000E+00  0.00000000000E+00 -0.11781758443E+04  0.11781758443E+04  0.00000000000E+00 0. -1.
       24    2    1    2    0    0  0.00000000000E+00  0.00000000000E+00 -0.11767576882E+04  0.11795940003E+04  0.81751750623E+02 0.  0.
      -11    1    3    3    0    0  0.20636966230E+02  0.47354812919E+01 -0.83874505694E+02  0.86505733126E+02  0.00000000000E+00 0.  1.
       12    1    3    3    0    0 -0.20636966230E+02 -0.47354812919E+01 -0.10928831825E+04  0.10930882672E+04  0.00000000000E+00 0. -1.
</event>
<event>
 5   1  0.7748900E+01  0.8040000E+02  0.7957747E-01  0.1297830E+00
       -1   -1    0    0    0  501  0.00000000000E+00  0.00000000000E+00  0.85817588822E+03  0.85817588822E+03  0.00000000000E+00 0.  1.
        2   -1    0    0  501    0  0.00000000000E+00  0.00000000000E+00 -0.18772015739E+01  0.18772015739E+01  0.00000000000E+00 0. -1.
       24    2    1    2    0    0  0.00000000000E+00  0.00000000000E+00  0.85629868665E+03  0.86005308980E+03  0.80273759799E+02 0.  0.
      -11    1    3    3    0    0 -0.33509587522E+02  0.30042018904E+01  0.66264928133E+03  0.66350281668E+03  0.00000000000E+00 0.  1.
       12    1    3    3    0    0  0.33509587522E+02 -0.30042018904E+01  0.19364940532E+03  0.19655027312E+03  0.00000000000E+00 0. -1.
</event>
<event>
 5   1  0.7748900E+01  0.8040000E+02  0.7957747E-01  0.1297830E+00
        2   -1    0    0  501    0  0.00000000000E+00  0.00000000000E+00  0.54554186403E+03  0.54554186403E+03  0.00000000000E+00 0. -1.
       -1   -1    0    0    0  501  0.00000000000E+00  0.00000000000E+00 -0.29644512205E+01  0.29644512205E+01  0.00000000000E+00 0.  1.
       24    2    1    2    0    0  0.00000000000E+00  0.00000000000E+00  0.54257741281E+03  0.54850631525E+03  0.80429652359E+02 0.  0.
      -11    1    3    3    0    0  0.31720549449E+02  0.41465739216E+01  0.10509982656E+03  0.10986064298E+03  0.00000000000E+00 0.  1.
       12    1    3    3    0    0 -0.31720549449E+02 -0.41465739216E+01  0.43747758625E+03  0.43864567227E+03  0.00000000000E+00 0. -1.
</event>
<event>
 5   1  0.7748900E+01  0.8040000E+02  0.7957747E-01  0.1297830E+00
       -1   -1    0    0    0  501  0.00000000000E+00  0.00000000000E+00  0.21618153064E+03  0.21618153064E+03  0.00000000000E+00 0.  1.
        2   -1    0    0  501    0  0.00000000000E+00  0.00000000000E+00 -0.72434007017E+01  0.72434007017E+01  0.00000000000E+00 0. -1.
       24    2    1    2    0    0  0.00000000000E+00  0.00000000000E+00  0.20893812994E+03  0.22342493135E+03  0.79142642129E+02 0.  0.
      -11    1    3    3    0    0 -0.34458855073E+02 -0.42978613222E+01  0.15803336606E+03  0.16180367454E+03  0.00000000000E+00 0.  1.
       12    1    3    3    0    0  0.34458855073E+02  0.42978613222E+01  0.50904763878E+02  0.61621256806E+02  0.00000000000E+00 0. -1.
</event>
<event>
 5   1  0.7748900E+01  0.8040000E+02  0.7957747E-01  0.1297830E+00
       -1   -1    0    0    0  501  0.00000000000E+00  0.00000000000E+00  0.45453021933E+03  0.45453021933E+03  0.00000000000E+00 0.  1.
        2   -1    0    0  501    0  0.00000000000E+00  0.00000000000E+00 -0.34815151126E+01  0.34815151126E+01  0.00000000000E+00 0. -1.
       24    2    1    2    0    0  0.00000000000E+00  0.00000000000E+00  0.45104870422E+03  0.45801173444E+03  0.79560136443E+02 0.  0.
      -11    1    3    3    0    0 -0.18014768510E+02  0.19798818748E+02  0.39492776576E+03  0.39583388596E+03  0.00000000000E+00 0.  1.
       12    1    3    3    0    0  0.18014768510E+02 -0.19798818748E+02  0.56120938463E+02  0.62177848485E+02  0.00000000000E+00 0. -1.
</event>
<event>
 5   2  0.7748900E+01  0.8040000E+02  0.7957747E-01  0.1297830E+00
       -2   -1    0    0    0  501  0.00000000000E+00  0.00000000000E+00  0.29581201744E+03  0.29581201744E+03  0.00000000000E+00 0.  1.
        1   -1    0    0  501    0  0.00000000000E+00  0.00000000000E+00 -0.55040944575E+01  0.55040944575E+01  0.00000000000E+00 0. -1.
      -24    2    1    2    0    0  0.00000000000E+00  0.00000000000E+00  0.29030792298E+03  0.30131611190E+03  0.80701357749E+02 0.  0.
       11    1    3    3    0    0  0.13577544222E+02 -0.35712311725E+02  0.96693470489E+02  0.10396800542E+03  0.00000000000E+00 0. -1.
      -12    1    3    3    0    0 -0.13577544222E+02  0.35712311725E+02  0.19361445249E+03  0.19734810648E+03  0.00000000000E+00 0.  1.
</event>
<event>
 5   2  0.7748900E+01  0.8040000E+02  0.7957747E-01  0.1297830E+00
       -2   -1    0    0    0  501  0.00000000000E+00  0.00000000000E+00  0.25582475888E+01  0.25582475888E+01  0.00000000000E+00 0.  1.
        1   -1    0    0  501    0  0.00000000000E+00  0.00000000000E+00 -0.60847675421E+03  0.60847675421E+03  0.00000000000E+00 0. -1.
      -24    2    1    2    0    0  0.00000000000E+00  0.00000000000E+00 -0.60591850662E+03  0.61103500179E+03  0.78908407391E+02 0.  0.
       11    1    3    3    0    0 -0.48360965541E+00 -0.24839508869E+01 -0.60784766712E+03  0.60785293477E+03  0.00000000000E+00 0. -1.
      -12    1    3    3    0    0  0.48360965541E+00  0.24839508869E+01  0.19291604999E+01  0.31820670234E+01  0.00000000000E+00 0.  1.
</event>
<event>
 5   1  0.7748900E+01  0.8040000E+02  0.7957747E-01  0.1297830E+00
        2   -1    0    0  501    0  0.00000000000E+00  0.00000000000E+00  0.18235716814E+03  0.18235716814E+03  0.00000000000E+00 0. -1.
       -1   -1    0    0    0  501  0.00000000000E+00  0.00000000000E+00 -0.90422859588E+01  0.90422859588E+01  0.00000000000E+00 0.  1.
       24    2    1    2    0    0  0.00000000000E+00  0.00000000000E+00  0.17331488218E+03  0.19139945410E+03  0.81213931341E+02 0.  0.
      -11    1    3    3    0    0 -0.30902356946E+02  0.17631296917E+02  0.40528826495E+02  0.53929621479E+02  0.00000000000E+00 0.  1.
       12    1    3    3    0    0  0.30902356946E+02 -0.17631296917E+02  0.13278605569E+03  0.13746983262E+03  0.00000000000E+00 0. -1.
</event>
<event>
 5   1  0.7748900E+01  0.8040000E+02  0.7957747E-01  0.1297830E+00
       -1   -1    0    0    0  501  0.00000000000E+00  0.00000000000E+00  0.14694630516E+02  0.14694630516E+02  0.00000000000E+00 0.  1.
        2   -1    0    0  501    0  0.00000000000E+00  0.00000000000E+00 -0.11319217053E+03  0.11319217053E+03  0.00000000000E+00 0. -1.
       24    2    1    2    0    0  0.00000000000E+00  0.00000000000E+00 -0.98497540012E+02  0.12788680105E+03  0.81567570106E+02 0.  0.
      -11    1    3    3    0    0  0.39936181656E+02  0.66102915273E+01 -0.41453072961E+02  0.57939207945E+02  0.00000000000E+00 0.  1.
       12    1    3    3    0    0 -0.39936181656E+02 -0.66102915273E+01 -0.57044467051E+02  0.69947593100E+02  0.00000000000E+00 0. -1.
</event>
<event>
 5   2  0.7748900E+01  0.8040000E+02  0.7957747E-01  0.1297830E+00
        1   -1    0    0  501    0  0.00000000000E+00  0.00000000000E+00  0.85898252161E+03  0.85898252161E+03  0.00000000000E+00 0. -1.
       -2   -1    0    0    0  501  0.00000000000E+00  0.00000000000E+00 -0.19628908456E+01  0.19628908456E+01  0.00000000000E+00 0.  1.
      -24    2    1    2    0    0  0.00000000000E+00  0.00000000000E+00  0.85701963077E+03  0.86094541246E+03  0.82124026405E+02 0.  0.
       11    1    3    3    0    0 -0.30072997881E+02  0.13590312281E+01  0.72127053301E+03  0.72189847899E+03  0.00000000000E+00 0. -1.
      -12    1    3    3    0    0  0.30072997881E+02 -0.13590312281E+01  0.13574909775E+03  0.13904693347E+03  0.00000000000E+00 0.  1.
</event>
<event>
 5   1  0.7748900E+01  0.8040000E+02  0.7957747E-01  0.1297830E+00
       -1   -1    0    0    0  501  0.00000000000E+00  0.00000000000E+00  0.10894940559E+03  0.10894940559E+03  0.00000000000E+00 0.  1.
        2   -1    0    0  501    0  0.00000000000E+00  0.00000000000E+00 -0.14876928330E+02  0.14876928330E+02  0.00000000000E+00 0. -1.
       24    2    1    2    0    0  0.00000000000E+00  0.00000000000E+00  0.94072477264E+02  0.12382633392E+03  0.80519128129E+02 0.  0.
      -11    1    3    3    0    0  0.34735039515E+02  0.78754822061E+01  0.75900592081E+02  0.83841791896E+02  0.00000000000E+00 0.  1.
       12    1    3    3    0    0 -0.34735039515E+02 -0.78754822061E+01  0.18171885183E+02  0.39984542028E+02  0.00000000000E+00 0. -1.
</event>
<event>
 5   1  0.7748900E+01  0.8040000E+02  0.7957747E-01  0.1297830E+00
       -1   -1    0    0    0  501  0.00000000000E+00  0.00000000000E+00  0.10567189867E+01  0.10567189867E+01  0.00000000000E+00 0.  1.
        2   -1    0    0  501    0  0.00000000000E+00  0.00000000000E+00 -0.14830889673E+04  0.14830889673E+04  0.00000000000E+00 0. -1.
       24    2    1    2    0    0  0.00000000000E+00  0.00000000000E+00 -0.14820322483E+04  0.14841456863E+04  0.79175962786E+02 0.  0.
      -11    1    3    3    0    0 -0.21426213661E+02 -0.10891517749E+02 -0.15137035652E+03  0.15326673685E+03  0.00000000000E+00 0.  1.
       12    1    3    3    0    0  0.21426213661E+02  0.10891517749E+02 -0.13306618918E+04  0.13308789494E+04  0.00000000000E+00 0. -1.
</event>
<event>
 5   2  0.7748900E+01  0.8040000E+02  0.7957747E-01  0.1297830E+00
       -4   -1    0    0    0  501  0.00000000000E+00  0.00000000000E+00  0.11992588167E+03  0.11992588167E+03  0.00000000000E+00 0.  1.
        3   -1    0    0  501    0  0.00000000000E+00  0.00000000000E+00 -0.11051927720E+02  0.11051927720E+02  0.00000000000E+00 0. -1.
      -24    2    1    2    0    0  0.00000000000E+00  0.00000000000E+00  0.10887395395E+03  0.13097780939E+03  0.72812421357E+02 0.  0.
       11    1    3    3    0    0 -0.35480770176E+02 -0.79777578877E+01  0.51382920151E+02  0.62950251441E+02  0.00000000000E+00 0. -1.
      -12    1    3    3    0    0  0.35480770176E+02  0.79777578877E+01  0.57491033797E+02  0.68027557948E+02  0.00000000000E+00 0.  1.
</event>
<event>
 5   1  0.7748900E+01  0.8040000E+02  0.7957747E-01  0.1297830E+00
       -1   -1    0    0    0  501  0.00000000000E+00  0.00000000000E+00  0.29256158542E+01  0.29256158542E+01  0.00000000000E+00 0.  1.
        2   -1    0    0  501    0  0.00000000000E+00  0.00000000000E+00 -0.55560088659E+03  0.55560088659E+03  0.00000000000E+00 0. -1.
       24    2    1    2    0    0  0.00000000000E+00  0.00000000000E+00 -0.55267527073E+03  0.55852650244E+03  0.80634354029E+02 0.  0.
      -11    1    3    3    0    0  0.27254265241E+02 -0.22080348517E+02 -0.13864900753E+03  0.14301707609E+03  0.00000000000E+00 0.  1.
       12    1    3    3    0    0 -0.27254265241E+02  0.22080348517E+02 -0.41402626321E+03  0.41550942635E+03  0.00000000000E+00 0. -1.
</event>
<event>
 5   1  0.7748900E+01  0.8040000E+02  0.7957747E-01  0.1297830E+00
       -1   -1    0    0    0  501  0.00000000000E+00  0.00000000000E+00  0.14495560340E+02  0.14495560340E+02  0.00000000000E+00 0.  1.
        2   -1    0    0  501    0  0.00000000000E+00  0.00000000000E+00 -0.10979250916E+03  0.10979250916E+03  0.00000000000E+00 0. -1.
       24    2    1    2    0    0  0.00000000000E+00  0.00000000000E+00 -0.95296948818E+02  0.12428806950E+03  0.79787315820E+02 0.  0.
      -11    1    3    3    0    0  0.39381388151E+02 -0.19054576120E+01 -0.38175731453E+02  0.54880879852E+02  0.00000000000E+00 0.  1.
       12    1    3    3    0    0 -0.39381388151E+02  0.19054576120E+01 -0.57121217365E+02  0.69407189647E+02  0.00000000000E+00 0. -1.
</event>
<event>
 5   2  0.7748900E+01  0.8040000E+02  0.7957747E-01  0.1297830E+00
        1   -1    0    0  501    0  0.00000000000E+00  0.00000000000E+00  0.46332855508E+03  0.46332855508E+03  0.00000000000E+00 0. -1.
       -2   -1    0    0    0  501  0.00000000000E+00  0.00000000000E+00 -0.33713896683E+01  0.33713896683E+01  0.00000000000E+00 0.  1.
      -24    2    1    2    0    0  0.00000000000E+00  0.00000000000E+00  0.45995716541E+03  0.46669994474E+03  0.79045837426E+02 0.  0.
       11    1    3    3    0    0  0.23395146295E+02 -0.23948969031E+02  0.35399073610E+03  0.35557042514E+03  0.00000000000E+00 0. -1.
      -12    1    3    3    0    0 -0.23395146295E+02  0.23948969031E+02  0.10596642931E+03  0.11112951961E+03  0.00000000000E+00 0.  1.
</event>
<event>
 5   1  0.7748900E+01  0.8040000E+02  0.7957747E-01  0.1297830E+00
        2   -1    0    0  501    0  0.00000000000E+00  0.00000000000E+00  0.13217896942E+02  0.13217896942E+02  0.00000000000E+00 0. -1.
       -1   -1    0    0    0  501  0.00000000000E+00  0.00000000000E+00 -0.12376357275E+03  0.12376357275E+03  0.00000000000E+00 0.  1.
       24    2    1    2    0    0  0.00000000000E+00  0.00000000000E+00 -0.11054567581E+03  0.13698146969E+03  0.80892376646E+02 0.  0.
      -11    1    3    3    0    0 -0.15226977728E+01 -0.35715600553E+02 -0.87311797336E+02  0.94346556298E+02  0.00000000000E+00 0.  1.
       12    1    3    3    0    0  0.15226977728E+01  0.35715600553E+02 -0.23233878474E+02  0.42634913396E+02  0.00000000000E+00 0. -1.
</event>
<event>
 5   2  0.7748900E+01  0.8040000E+02  0.7957747E-01  0.1297830E+00
        3   -1    0    0  501    0  0.00000000000E+00  0.00000000000E+00  0.55394782037E+02  0.55394782037E+02  0.00000000000E+00 0. -1.
       -4   -1    0    0    0  501  0.00000000000E+00  0.00000000000E+00 -0.28057433377E+02  0.28057433377E+02  0.00000000000E+00 0.  1.
      -24    2    1    2    0    0  0.00000000000E+00  0.00000000000E+00  0.27337348660E+02  0.83452215414E+02  0.78847584781E+02 0.  0.
       11    1    3    3    0    0 -0.14604915018E+02  0.34527671870E+02  0.26578182461E+02  0.45955015509E+02  0.00000000000E+00 0. -1.
      -12    1    3    3    0    0  0.14604915018E+02 -0.34527671870E+02  0.75916619850E+00  0.37497199906E+02  0.00000000000E+00 0.  1.
</event>
<event>
 5   2  0.7748900E+01  0.8040000E+02  0.7957747E-01  0.1297830E+00
       -2   -1    0    0    0  501  0.00000000000E+00  0.00000000000E+00  0.27020014955E+01  0.27020014955E+01  0.00000000000E+00 0.  1.
        1   -1    0    0  501    0  0.00000000000E+00  0.00000000000E+00 -0.60980395477E+03  0.60980395477E+03  0.00000000000E+00 0. -1.
      -24    2    1    2    0    0  0.00000000000E+00  0.00000000000E+00 -0.60710195327E+03  0.61250595627E+03  0.81183525367E+02 0.  0.
       11    1    3    3    0    0  0.22029628711E+02  0.17772759993E+02 -0.52306380618E+03  0.52382909510E+03  0.00000000000E+00 0. -1.
      -12    1    3    3    0    0 -0.22029628711E+02 -0.17772759993E+02 -0.84038147097E+02  0.88676861167E+02  0.00000000000E+00 0.  1.
</event>
<event>
 5   2  0.7748900E+01  0.8040000E+02  0.7957747E-01  0.1297830E+00
        1   -1    0    0  501    0  0.00000000000E+00  0.00000000000E+00  0.24624592502E+03  0.24624592502E+03  0.00000000000E+00 0. -1.
       -2   -1    0    0    0  501  0.00000000000E+00  0.00000000000E+00 -0.67933301473E+01  0.67933301473E+01  0.00000000000E+00 0.  1.
      -24    2    1    2    0    0  0.00000000000E+00  0.00000000000E+00  0.23945259487E+03  0.25303925517E+03  0.81800485722E+02 0.  0.
       11    1    3    3    0    0 -0.39121291192E+01  0.20244224104E+02  0.22899266279E+03  0.22991905744E+03  0.00000000000E+00 0. -1.
      -12    1    3    3    0    0  0.39121291192E+01 -0.20244224104E+02  0.10459932089E+02  0.23120197731E+02  0.00000000000E+00 0.  1.
</event>
<event>
 5   1  0.7748900E+01  0.8040000E+02  0.7957747E-01  0.1297830E+00
        2   -1    0    0  501    0  0.00000000000E+00  0.00000000000E+00  0.90748464835E+01  0.90748464835E+01  0.00000000000E+00 0. -1.
       -1   -1    0    0    0  501  0.00000000000E+00  0.00000000000E+00 -0.15159387194E+03  0.15159387194E+03  0.00000000000E+00 0.  1.
       24    2    1    2    0    0  0.00000000000E+00  0.00000000000E+00 -0.14251902546E+03  0.16066871843E+03  0.74180620535E+02 0.  0.
      -11    1    3    3    0    0 -0.43128281314E+01 -0.25486750754E+02 -0.12887099525E+03  0.13143784983E+03  0.00000000000E+00 0.  1.
       12    1    3    3    0    0  0.43128281314E+01  0.25486750754E+02 -0.13648030210E+02  0.29230868600E+02  0.00000000000E+00 0. -1.
</event>
<event>
 5   2  0.7748900E+01  0.8040000E+02  0.7957747E-01  0.1297830E+00
        1   -1    0    0  501    0  0.00000000000E+00  0.00000000000E+00  0.89190885601E+03  0.89190885601E+03  0.00000000000E+00 0. -1.
       -2   -1    0    0    0  501  0.00000000000E+00  0.00000000000E+00 -0.20606286153E+01  0.20606286153E+01  0.00000000000E+00 0.  1.
      -24    2    1    2    0    0  0.00000000000E+00  0.00000000000E+00  0.88984822739E+03  0.89396948462E+03  0.85741306520E+02 0.  0.
       11    1    3    3    0    0  0.35764111018E+02 -0.17170647449E+01  0.69074590154E+03  0.69167327579E+03  0.00000000000E+00 0. -1.
      -12    1    3    3    0    0 -0.35764111018E+02  0.17170647449E+01  0.19910232586E+03  0.20229620884E+03  0.00000000000E+00 0.  1.
</event>
<event>
 5   2  0.7748900E+01  0.8040000E+02  0.7957747E-01  0.1297830E+00
       -2   -1    0    0    0  501  0.00000000000E+00  0.00000000000E+00  0.60263857973E+01  0.60263857973E+01  0.00000000000E+00 0.  1.
        1   -1    0    0  501    0  0.00000000000E+00  0.00000000000E+00 -0.31153013790E+03  0.31153013790E+03  0.00000000000E+00 0. -1.
      -24    2    1    2    0    0  0.00000000000E+00  0.00000000000E+00 -0.30550375211E+03  0.31755652370E+03  0.86657966708E+02 0.  0.
       11    1    3    3    0    0  0.56335912386E+01 -0.44235562480E+01 -0.30934558087E+03  0.30942849514E+03  0.00000000000E+00 0. -1.
      -12    1    3    3    0    0 -0.56335912386E+01  0.44235562480E+01  0.38418287609E+01  0.81280285648E+01  0.00000000000E+00 0.  1.
</event>
<event>
 5   1  0.7748900E+01  0.8040000E+02  0.7957747E-01  0.1297830E+00
       -1   -1    0    0    0  501  0.00000000000E+00  0.00000000000E+00  0.13012792471E+01  0.13012792471E+01  0.00000000000E+00 0.  1.
        2   -1    0    0  501    0  0.00000000000E+00  0.00000000000E+00 -0.12585061769E+04  0.12585061769E+04  0.00000000000E+00 0. -1.
       24    2    1    2    0    0  0.00000000000E+00  0.00000000000E+00 -0.12572048976E+04  0.12598074561E+04  0.80936221069E+02 0.  0.
      -11    1    3    3    0    0 -0.45572920396E+01 -0.26008493797E+02 -0.15125918926E+03  0.15354658249E+03  0.00000000000E+00 0.  1.
       12    1    3    3    0    0  0.45572920396E+01  0.26008493797E+02 -0.11059457083E+04  0.11062608736E+04  0.00000000000E+00 0. -1.
</event>
<event>
 5   2  0.7748900E+01  0.8040000E+02  0.7957747E-01  0.1297830E+00
       -2   -1    0    0    0  501  0.00000000000E+00  0.00000000000E+00  0.21417589506E+02  0.21417589506E+02  0.00000000000E+00 0.  1.
        1   -1    0    0  501    0  0.00000000000E+00  0.00000000000E+00 -0.75375282337E+02  0.75375282337E+02  0.00000000000E+00 0. -1.
      -24    2    1    2    0    0  0.00000000000E+00  0.00000000000E+00 -0.53957692831E+02  0.96792871843E+02  0.80358119839E+02 0.  0.
       11    1    3    3    0    0 -0.96574154212E+01 -0.35676893036E+01 -0.73759524415E+02  0.74474569630E+02  0.00000000000E+00 0. -1.
      -12    1    3    3    0    0  0.96574154212E+01  0.35676893036E+01  0.19801831585E+02  0.22318302213E+02  0.00000000000E+00 0.  1.
</event>
<event>
 5   2  0.7748900E+01  0.8040000E+02  0.7957747E-01  0.1297830E+00
       -2   -1    0    0    0  501  0.00000000000E+00  0.00000000000E+00  0.24004968075E+02  0.24004968075E+02  0.00000000000E+00 0.  1.
        1   -1    0    0  501    0  0.00000000000E+00  0.00000000000E+00 -0.52420852100E+02  0.52420852100E+02  0.00000000000E+00 0. -1.
      -24    2    1    2    0    0  0.00000000000E+00  0.00000000000E+00 -0.28415884024E+02  0.76425820175E+02  0.70946765427E+02 0.  0.
       11    1    3    3    0    0 -0.13962688384E+01 -0.28302160947E+01 -0.52269327682E+02  0.52364513806E+02  0.00000000000E+00 0. -1.
      -12    1    3    3    0    0  0.13962688384E+01  0.28302160947E+01  0.23853443658E+02  0.24061306369E+02  0.00000000000E+00 0.  1.
</event>
<event>
 5   2  0.7748900E+01  0.8040000E+02  0.7957747E-01  0.1297830E+00
       -2   -1    0    0    0  501  0.00000000000E+00  0.00000000000E+00  0.45112005140E+02  0.45112005140E+02  0.00000000000E+00 0.  1.
        1   -1    0    0  501    0  0.00000000000E+00  0.00000000000E+00 -0.35739746510E+02  0.35739746510E+02  0.00000000000E+00 0. -1.
      -24    2    1    2    0    0  0.00000000000E+00  0.00000000000E+00  0.93722586302E+01  0.80851751650E+02  0.80306702790E+02 0.  0.
       11    1    3    3    0    0 -0.21180509452E+02 -0.32824120007E+02 -0.46642506139E+01  0.39341988621E+02  0.00000000000E+00 0. -1.
      -12    1    3    3    0    0  0.21180509452E+02  0.32824120007E+02  0.14036509244E+02  0.41509763028E+02  0.00000000000E+00 0.  1.
</event>
<event>
 5   2  0.7748900E+01  0.8040000E+02  0.7957747E-01  0.1297830E+00
       -4   -1    0    0    0  501  0.00000000000E+00  0.00000000000E+00  0.28950438882E+01  0.28950438882E+01  0.00000000000E+00 0.  1.
        3   -1    0    0  501    0  0.00000000000E+00  0.00000000000E+00 -0.54386735904E+03  0.54386735904E+03  0.00000000000E+00 0. -1.
      -24    2    1    2    0    0  0.00000000000E+00  0.00000000000E+00 -0.54097231515E+03  0.54676240292E+03  0.79360440365E+02 0.  0.
       11    1    3    3    0    0  0.20376048632E+02 -0.31527976899E+02 -0.35907141689E+03  0.36102836331E+03  0.00000000000E+00 0. -1.
      -12    1    3    3    0    0 -0.20376048632E+02  0.31527976899E+02 -0.18190089825E+03  0.18573403961E+03  0.00000000000E+00 0.  1.
</event>
<event>
 5   1  0.7748900E+01  0.8040000E+02  0.7957747E-01  0.1297830E+00
       -1   -1    0    0    0  501  0.00000000000E+00  0.00000000000E+00  0.17476403557E+01  0.17476403557E+01  0.00000000000E+00 0.  1.
        2   -1    0    0  501    0  0.00000000000E+00  0.00000000000E+00 -0.92743295853E+03  0.92743295853E+03  0.00000000000E+00 0. -1.
       24    2    1    2    0    0  0.00000000000E+00  0.00000000000E+00 -0.92568531817E+03  0.92918059888E+03  0.80518799434E+02 0.  0.
      -11    1    3    3    0    0 -0.81403417116E+01 -0.20820561674E+02 -0.76460607286E+02  0.79661693543E+02  0.00000000000E+00 0.  1.
       12    1    3    3    0    0  0.81403417116E+01  0.20820561674E+02 -0.84922471089E+03  0.84951890534E+03  0.00000000000E+00 0. -1.
</event>
<event>
 5   1  0.7748900E+01  0.8040000E+02  0.7957747E-01  0.1297830E+00
        2   -1    0    0  501    0  0.00000000000E+00  0.00000000000E+00  0.41884091393E+01  0.41884091393E+01  0.00000000000E+00 0. -1.
       -1   -1    0    0    0  501  0.00000000000E+00  0.00000000000E+00 -0.38398571273E+03  0.38398571273E+03  0.00000000000E+00 0.  1.
       24    2    1    2    0    0  0.00000000000E+00  0.00000000000E+00 -0.37979730359E+03  0.38817412187E+03  0.80206964001E+02 0.  0.
      -11    1    3    3    0    0 -0.25666797984E+02  0.67760954837E+00 -0.33899192192E+03  0.33996289033E+03  0.00000000000E+00 0.  1.
       12    1    3    3    0    0  0.25666797984E+02 -0.67760954837E+00 -0.40805381676E+02  0.48211231546E+02  0.00000000000E+00 0. -1.
</event>
<event>
 5   1  0.7748900E+01  0.8040000E+02  0.7957747E-01  0.1297830E+00
        2   -1    0    0  501    0  0.00000000000E+00  0.00000000000E+00  0.59959238775E+02  0.59959238775E+02  0.00000000000E+00 0. -1.
       -1   -1    0    0    0  501  0.00000000000E+00  0.00000000000E+00 -0.25626435983E+02  0.25626435983E+02  0.00000000000E+00 0.  1.
       24    2    1    2    0    0  0.00000000000E+00  0.00000000000E+00  0.34332802792E+02  0.85585674758E+02  0.78397489604E+02 0.  0.
      -11    1    3    3    0    0  0.10561280647E+02  0.41629438469E+01 -0.23792611388E+02  0.26362077062E+02  0.00000000000E+00 0.  1.
       12    1    3    3    0    0 -0.10561280647E+02 -0.41629438469E+01  0.58125414180E+02  0.59223597695E+02  0.00000000000E+00 0. -1.
</event>
<event>
 5   2  0.7748900E+01  0.8040000E+02  0.7957747E-01  0.1297830E+00
       -2   -1    0    0    0  501  0.00000000000E+00  0.00000000000E+00  0.23535741564E+02  0.23535741564E+02  0.00000000000E+00 0.  1.
        1   -1    0    0  501    0  0.00000000000E+00  0.00000000000E+00 -0.69047479615E+02  0.69047479615E+02  0.00000000000E+00 0. -1.
      -24    2    1    2    0    0  0.00000000000E+00  0.00000000000E+00 -0.45511738052E+02  0.92583221179E+02  0.80624652206E+02 0.  0.
       11    1    3    3    0    0 -0.39493602313E+01 -0.27645803501E+02 -0.56140231097E+02  0.62702579254E+02  0.00000000000E+00 0. -1.
      -12    1    3    3    0    0  0.39493602313E+01  0.27645803501E+02  0.10628493045E+02  0.29880641925E+02  0.00000000000E+00 0.  1.
</event>
<event>
 5   1  0.7748900E+01  0.8040000E+02  0.7957747E-01  0.1297830E+00
        4   -1    0    0  501    0  0.00000000000E+00  0.00000000000E+00  0.46380007006E+01  0.46380007006E+01  0.00000000000E+00 0. -1.
       -3   -1    0    0    0  501  0.00000000000E+00  0.00000000000E+00 -0.44129030796E+03  0.44129030796E+03  0.00000000000E+00 0.  1.
       24    2    1    2    0    0  0.00000000000E+00  0.00000000000E+00 -0.43665230725E+03  0.44592830866E+03  0.90481042379E+02 0.  0.
      -11    1    3    3    0    0  0.80239812147E+00  0.19894573292E+02 -0.41853558789E+03  0.41900892141E+03  0.00000000000E+00 0.  1.
       12    1    3    3    0    0 -0.80239812147E+00 -0.19894573292E+02 -0.18116719362E+02  0.26919387246E+02  0.00000000000E+00 0. -1.
</event>
<event>
 5   2  0.7748900E+01  0.8040000E+02  0.7957747E-01  0.1297830E+00
        3   -1    0    0  501    0  0.00000000000E+00  0.00000000000E+00  0.14075839211E+02  0.14075839211E+02  0.00000000000E+00 0. -1.
       -4   -1    0    0    0  501  0.00000000000E+00  0.00000000000E+00 -0.11552445616E+03  0.11552445616E+03  0.00000000000E+00 0.  1.
      -24    2    1    2    0    0  0.00000000000E+00  0.00000000000E+00 -0.10144861695E+03  0.12960029537E+03  0.80649951515E+02 0.  0.
       11    1    3    3    0    0 -0.18602313100E+02 -0.28874987311E+02 -0.16776496787E+02  0.38226454051E+02  0.00000000000E+00 0. -1.
      -12    1    3    3    0    0  0.18602313100E+02  0.28874987311E+02 -0.84672120159E+02  0.91373841317E+02  0.00000000000E+00 0.  1.
</event>
<event>
 5   2  0.7748900E+01  0.8040000E+02  0.7957747E-01  0.1297830E+00
        1   -1    0    0  501    0  0.00000000000E+00  0.00000000000E+00  0.70199871281E+03  0.70199871281E+03  0.00000000000E+00 0. -1.
       -2   -1    0    0    0  501  0.00000000000E+00  0.00000000000E+00 -0.25613546798E+01  0.25613546798E+01  0.00000000000E+00 0.  1.
      -24    2    1    2    0    0  0.00000000000E+00  0.00000000000E+00  0.69943735813E+03  0.70456006749E+03  0.84807256488E+02 0.  0.
       11    1    3    3    0    0 -0.83999562813E+01  0.27415493815E+02  0.60924862392E+03  0.60992299048E+03  0.00000000000E+00 0. -1.
      -12    1    3    3    0    0  0.83999562813E+01 -0.27415493815E+02  0.90188734207E+02  0.94637077008E+02  0.00000000000E+00 0.  1.
</event>
<event>
 5   2  0.7748900E+01  0.8040000E+02  0.7957747E-01  0.1297830E+00
        1   -1    0    0  501    0  0.00000000000E+00  0.00000000000E+00  0.13058889363E+03  0.13058889363E+03  0.00000000000E+00 0. -1.
       -2   -1    0    0    0  501  0.00000000000E+00  0.00000000000E+00 -0.12429377765E+02  0.12429377765E+02  0.00000000000E+00 0.  1.
      -24    2    1    2    0    0  0.00000000000E+00  0.00000000000E+00  0.11815951586E+03  0.14301827139E+03  0.80576390855E+02 0.  0.
       11    1    3    3    0    0 -0.27576130424E+02 -0.27921004600E+02  0.75261257937E+02  0.84878044353E+02  0.00000000000E+00 0. -1.
      -12    1    3    3    0    0  0.27576130424E+02  0.27921004600E+02  0.42898257923E+02  0.58140227037E+02  0.00000000000E+00 0.  1.
</event>
<event>
 5   2  0.7748900E+01  0.8040000E+02  0.7957747E-01  0.1297830E+00
        1   -1    0    0  501    0  0.00000000000E+00  0.00000000000E+00  0.26197818162E+03  0.26197818162E+03  0.00000000000E+00 0. -1.
       -2   -1    0    0    0  501  0.00000000000E+00  0.00000000000E+00 -0.62399416855E+01  0.62399416855E+01  0.00000000000E+00 0.  1.
      -24    2    1    2    0    0  0.00000000000E+00  0.00000000000E+00  0.25573823993E+03  0.26821812330E+03  0.80863553624E+02 0.  0.
       11    1    3    3    0    0  0.45507929316E+01 -0.36299167848E+02  0.18497312089E+03  0.18855607854E+03  0.00000000000E+00 0. -1.
      -12    1    3    3    0    0 -0.45507929316E+01  0.36299167848E+02  0.70765119047E+02  0.79662044768E+02  0.00000000000E+00 0.  1.
</event>
<event>
 5   1  0.7748900E+01  0.8040000E+02  0.7957747E-01  0.1297830E+00
        2   -1    0    0  501    0  0.00000000000E+00  0.00000000000E+00  0.98903618666E+02  0.98903618666E+02  0.00000000000E+00 0. -1.
       -1   -1    0    0    0  501  0.00000000000E+00  0.00000000000E+00 -0.14827883849E+02  0.14827883849E+02  0.00000000000E+00 0.  1.
       24    2    1    2    0    0  0.00000000000E+00  0.00000000000E+00  0.84075734818E+02  0.11373150252E+03  0.76590635715E+02 0.  0.
      -11    1    3    3    0    0  0.63008776638E+01 -0.10192099632E+02 -0.11972489862E+02  0.16938726863E+02  0.00000000000E+00 0.  1.
       12    1    3    3    0    0 -0.63008776638E+01  0.10192099632E+02  0.96048224680E+02  0.96792775652E+02  0.00000000000E+00 0. -1.
</event>
<event>
 5   2  0.7748900E+01  0.8040000E+02  0.7957747E-01  0.1297830E+00
       -2   -1    0    0    0  501  0.00000000000E+00  0.00000000000E+00  0.73507820891E+01  0.73507820891E+01  0.00000000000E+00 0.  1.
        1   -1    0    0  501    0  0.00000000000E+00  0.00000000000E+00 -0.21863025234E+03  0.21863025234E+03  0.00000000000E+00 0. -1.
      -24    2    1    2    0    0  0.00000000000E+00  0.00000000000E+00 -0.21127947025E+03  0.22598103443E+03  0.80177386912E+02 0.  0.
       11    1    3    3    0    0  0.34685197648E+02  0.76704247408E+01 -0.15800684762E+03  0.16195080193E+03  0.00000000000E+00 0. -1.
      -12    1    3    3    0    0 -0.34685197648E+02 -0.76704247408E+01 -0.53272622626E+02  0.64030232493E+02  0.00000000000E+00 0.  1.
</event>
<event>
 5   1  0.7748900E+01  0.8040000E+02  0.7957747E-01  0.1297830E+00
        2   -1    0    0  501    0  0.00000000000E+00  0.00000000000E+00  0.16758087492E+03  0.16758087492E+03  0.00000000000E+00 0. -1.
       -1   -1    0    0    0  501  0.00000000000E+00  0.00000000000E+00 -0.95091713848E+01  0.95091713848E+01  0.00000000000E+00 0.  1.
       24    2    1    2    0    0  0.00000000000E+00  0.00000000000E+00  0.15807170354E+03  0.17709004631E+03  0.79838718939E+02 0.  0.
      -11    1    3    3    0    0 -0.38810788073E+01  0.14664985131E+02 -0.28666420883E+01  0.15438335353E+02  0.00000000000E+00 0.  1.
       12    1    3    3    0    0  0.38810788073E+01 -0.14664985131E+02  0.16093834563E+03  0.16165171095E+03  0.00000000000E+00 0. -1.
</event>
<event>
 5   2  0.7748900E+01  0.8040000E+02  0.7957747E-01  0.1297830E+00
       -2   -1    0    0    0  501  0.00000000000E+00  0.00000000000E+00  0.15798314850E+02  0.15798314850E+02  0.00000000000E+00 0.  1.
        1   -1    0    0  501    0  0.00000000000E+00  0.00000000000E+00 -0.10212048121E+03  0.10212048121E+03  0.00000000000E+00 0. -1.
      -24    2    1    2    0    0  0.00000000000E+00  0.00000000000E+00 -0.86322166357E+02  0.11791879606E+03  0.80332596490E+02 0.  0.
       11    1    3    3    0    0 -0.24015922213E+02 -0.19126636259E+02 -0.81177216366E+02  0.86789015383E+02  0.00000000000E+00 0. -1.
      -12    1    3    3    0    0  0.24015922213E+02  0.19126636259E+02 -0.51449499916E+01  0.31129780673E+02  0.00000000000E+00 0.  1.
</event>
<event>
 5   2  0.7748900E+01  0.8040000E+02  0.7957747E-01  0.1297830E+00
        3   -1    0    0  501    0  0.00000000000E+00  0.00000000000E+00  0.16602163837E+02  0.16602163837E+02  0.00000000000E+00 0. -1.
       -4   -1    0    0    0  501  0.00000000000E+00  0.00000000000E+00 -0.88082790941E+02  0.88082790941E+02  0.00000000000E+00 0.  1.
      -24    2    1    2    0    0  0.00000000000E+00  0.00000000000E+00 -0.71480627104E+02  0.10468495478E+03  0.76481760608E+02 0.  0.
       11    1    3    3    0    0  0.24457743392E+02  0.15135712714E+02 -0.12461698054E+01  0.28789302707E+02  0.00000000000E+00 0. -1.
      -12    1    3    3    0    0 -0.24457743392E+02 -0.15135712714E+02 -0.70234457299E+02  0.75895652071E+02  0.00000000000E+00 0.  1.
</event>
<event>
 5   1  0.7748900E+01  0.8040000E+02  0.7957747E-01  0.1297830E+00
        2   -1    0    0  501    0  0.00000000000E+00  0.00000000000E+00  0.27866939691E+02  0.27866939691E+02  0.00000000000E+00 0. -1.
       -1   -1    0    0    0  501  0.00000000000E+00  0.00000000000E+00 -0.56740009998E+02  0.56740009998E+02  0.00000000000E+00 0.  1.
       24    2    1    2    0    0  0.00000000000E+00  0.00000000000E+00 -0.28873070307E+02  0.84606949689E+02  0.79527867736E+02 0.  0.
      -11    1    3    3    0    0  0.33470959832E+02  0.21270107440E+02 -0.11344397118E+02  0.41248248067E+02  0.00000000000E+00 0.  1.
       12    1    3    3    0    0 -0.33470959832E+02 -0.21270107440E+02 -0.17528673189E+02  0.43358701622E+02  0.00000000000E+00 0. -1.
</event>
<event>
 5   1  0.7748900E+01  0.8040000E+02  0.7957747E-01  0.1297830E+00
       -1   -1    0    0    0  501  0.00000000000E+00  0.00000000000E+00  0.58355527306E+01  0.58355527306E+01  0.00000000000E+00 0.  1.
        2   -1    0    0  501    0  0.00000000000E+00  0.00000000000E+00 -0.30064391691E+03  0.30064391691E+03  0.00000000000E+00 0. -1.
       24    2    1    2    0    0  0.00000000000E+00  0.00000000000E+00 -0.29480836418E+03  0.30647946964E+03  0.83771676126E+02 0.  0.
      -11    1    3    3    0    0  0.15184718439E+02 -0.35925960772E+02 -0.91538718807E+02  0.99501695324E+02  0.00000000000E+00 0.  1.
       12    1    3    3    0    0 -0.15184718439E+02  0.35925960772E+02 -0.20326964537E+03  0.20697777432E+03  0.00000000000E+00 0. -1.
</event>
<event>
 5   2  0.7748900E+01  0.8040000E+02  0.7957747E-01  0.1297830E+00
       -2   -1    0    0    0  501  0.00000000000E+00  0.00000000000E+00  0.54855272313E+02  0.54855272313E+02  0.00000000000E+00 0.  1.
        1   -1    0    0  501    0  0.00000000000E+00  0.00000000000E+00 -0.27440398266E+02  0.27440398266E+02  0.00000000000E+00 0. -1.
      -24    2    1    2    0    0  0.00000000000E+00  0.00000000000E+00  0.27414874048E+02  0.82295670579E+02  0.77595116322E+02 0.  0.
       11    1    3    3    0    0 -0.16432591181E+02 -0.31759650716E+02  0.29670634682E+02  0.46465600490E+02  0.00000000000E+00 0. -1.
      -12    1    3    3    0    0  0.16432591181E+02  0.31759650716E+02 -0.22557606341E+01  0.35830070089E+02  0.00000000000E+00 0.  1.
</event>
<event>
 5   2  0.7748900E+01  0.8040000E+02  0.7957747E-01  0.1297830E+00
        1   -1    0    0  501    0  0.00000000000E+00  0.00000000000E+00  0.73217144501E+03  0.73217144501E+03  0.00000000000E+00 0. -1.
       -2   -1    0    0    0  501  0.00000000000E+00  0.00000000000E+00 -0.21529999579E+01  0.21529999579E+01  0.00000000000E+00 0.  1.
      -24    2    1    2    0    0  0.00000000000E+00  0.00000000000E+00  0.73001844506E+03  0.73432444497E+03  0.79406928925E+02 0.  0.
       11    1    3    3    0    0 -0.18380999183E+02  0.36387799561E+01  0.68871040643E+03  0.68896525731E+03  0.00000000000E+00 0. -1.
      -12    1    3    3    0    0  0.18380999183E+02 -0.36387799561E+01  0.41308038624E+02  0.45359187664E+02  0.00000000000E+00 0.  1.
</event>
<event>
 5   1  0.7748900E+01  0.8040000E+02  0.7957747E-01  0.1297830E+00
       -1   -1    0    0    0  501  0.00000000000E+00  0.00000000000E+00  0.77252557733E+00  0.77252557733E+00  0.00000000000E+00 0.  1.
        2   -1    0    0  501    0  0.00000000000E+00  0.00000000000E+00 -0.20602932891E+04  0.20602932891E+04  0.00000000000E+00 0. -1.
       24    2    1    2    0    0  0.00000000000E+00  0.00000000000E+00 -0.20595207635E+04  0.20610658147E+04  0.79790457139E+02 0.  0.
      -11    1    3    3    0    0 -0.21455241367E+02  0.32636478883E+02 -0.12398698555E+04  0.12404848752E+04  0.00000000000E+00 0.  1.
       12    1    3    3    0    0  0.21455241367E+02 -0.32636478883E+02 -0.81965090804E+03  0.82058093945E+03  0.00000000000E+00 0. -1.
</event>
<event>
 5   2  0.7748900E+01  0.8040000E+02  0.7957747E-01  0.1297830E+00
       -2   -1    0    0    0  501  0.00000000000E+00  0.00000000000E+00  0.39239545829E+03  0.39239545829E+03  0.00000000000E+00 0.  1.
        1   -1    0    0  501    0  0.00000000000E+00  0.00000000000E+00 -0.41467906720E+01  0.41467906720E+01  0.00000000000E+00 0. -1.
      -24    2    1    2    0    0  0.00000000000E+00  0.00000000000E+00  0.38824866762E+03  0.39654224896E+03  0.80676683773E+02 0.  0.
       11    1    3    3    0    0  0.78016521196E+00  0.39491161572E+02  0.23436340387E+03  0.23766860452E+03  0.00000000000E+00 0. -1.
      -12    1    3    3    0    0 -0.78016521196E+00 -0.39491161572E+02  0.15388526375E+03  0.15887364444E+03  0.00000000000E+00 0.  1.
</event>
<event>
 5   1  0.7748900E+01  0.8040000E+02  0.7957747E-01  0.1297830E+00
       -1   -1    0    0    0  501  0.00000000000E+00  0.00000000000E+00  0.57648009589E+02  0.57648009589E+02  0.00000000000E+00 0.  1.
        2   -1    0    0  501    0  0.00000000000E+00  0.00000000000E+00 -0.27883728651E+02  0.27883728651E+02  0.00000000000E+00 0. -1.
       24    2    1    2    0    0  0.00000000000E+00  0.00000000000E+00  0.29764280938E+02  0.85531738241E+02  0.80185820609E+02 0.  0.
      -11    1    3    3    0    0  0.38527241112E+02 -0.61308729680E+01  0.50187355706E+01  0.39333492316E+02  0.00000000000E+00 0.  1.
       12    1    3    3    0    0 -0.38527241112E+02  0.61308729680E+01  0.24745545367E+02  0.46198245925E+02  0.00000000000E+00 0. -1.
</event>
<event>
 5   1  0.7748900E+01  0.8040000E+02  0.7957747E-01  0.1297830E+00
        2   -1    0    0  501    0  0.00000000000E+00  0.00000000000E+00  0.58683680429E+03  0.58683680429E+03  0.00000000000E+00 0. -1.
       -1   -1    0    0    0  501  0.00000000000E+00  0.00000000000E+00 -0.25388844220E+01  0.25388844220E+01  0.00000000000E+00 0.  1.
       24    2    1    2    0    0  0.00000000000E+00  0.00000000000E+00  0.58429791987E+03  0.58937568871E+03  0.77198725914E+02 0.  0.
      -11    1    3    3    0    0 -0.34583031457E+01  0.23109358245E+02  0.57592694522E+02  0.62152399482E+02  0.00000000000E+00 0.  1.
       12    1    3    3    0    0  0.34583031457E+01 -0.23109358245E+02  0.52670522534E+03  0.52722328923E+03  0.00000000000E+00 0. -1.
</event>
<event>
 5   2  0.7748900E+01  0.8040000E+02  0.7957747E-01  0.1297830E+00
       -2   -1    0    0    0  501  0.00000000000E+00  0.00000000000E+00  0.16678413382E+03  0.16678413382E+03  0.00000000000E+00 0.  1.
        1   -1    0    0  501    0  0.00000000000E+00  0.00000000000E+00 -0.91600061360E+01  0.91600061360E+01  0.00000000000E+00 0. -1.
      -24    2    1    2    0    0  0.00000000000E+00  0.00000000000E+00  0.15762412769E+03  0.17594413996E+03  0.78172723867E+02 0.  0.
       11    1    3    3    0    0  0.19552241326E+02  0.30445492029E+02  0.45540693678E+02  0.58165048839E+02  0.00000000000E+00 0. -1.
      -12    1    3    3    0    0 -0.19552241326E+02 -0.30445492029E+02  0.11208343401E+03  0.11777909112E+03  0.00000000000E+00 0.  1.
</event>
<event>
 5   1  0.7748900E+01  0.8040000E+02  0.7957747E-01  0.1297830E+00
       -1   -1    0    0    0  501  0.00000000000E+00  0.00000000000E+00  0.45949608445E+01  0.45949608445E+01  0.00000000000E+00 0.  1.
        2   -1    0    0  501    0  0.00000000000E+00  0.00000000000E+00 -0.37034983950E+03  0.37034983950E+03  0.00000000000E+00 0. -1.
       24    2    1    2    0    0  0.00000000000E+00  0.00000000000E+00 -0.36575487866E+03  0.37494480035E+03  0.82504375915E+02 0.  0.
      -11    1    3    3    0    0 -0.26210084331E+02  0.27653835058E+01 -0.38655111013E+02  0.46784970600E+02  0.00000000000E+00 0.  1.
       12    1    3    3    0    0  0.26210084331E+02 -0.27653835058E+01 -0.32709976765E+03  0.32815982975E+03  0.00000000000E+00 0. -1.
</event>
<event>
 5   2  0.7748900E+01  0.8040000E+02  0.7957747E-01  0.1297830E+00
       -2   -1    0    0    0  501  0.00000000000E+00  0.00000000000E+00  0.19289462313E+02  0.19289462313E+02  0.00000000000E+00 0.  1.
        1   -1    0    0  501    0  0.00000000000E+00  0.00000000000E+00 -0.83275001909E+02  0.83275001909E+02  0.00000000000E+00 0. -1.
      -24    2    1    2    0    0  0.00000000000E+00  0.00000000000E+00 -0.63985539596E+02  0.10256446422E+03  0.80158094063E+02 0.  0.
       11    1    3    3    0    0  0.25321502292E+02 -0.17722410529E+02 -0.64641222798E+02  0.71650191892E+02  0.00000000000E+00 0. -1.
      -12    1    3    3    0    0 -0.25321502292E+02  0.17722410529E+02  0.65568320214E+00  0.30914272331E+02  0.00000000000E+00 0.  1.
</event>
<event>
 5   1  0.7748900E+01  0.8040000E+02  0.7957747E-01  0.1297830E+00
       -3   -1    0    0    0  501  0.00000000000E+00  0.00000000000E+00  0.17969222519E+03  0.17969222519E+03  0.00000000000E+00 0.  1.
        4   -1    0    0  501    0  0.00000000000E+00  0.00000000000E+00 -0.88928876371E+01  0.88928876371E+01  0.00000000000E+00 0. -1.
       24    2    1    2    0    0  0.00000000000E+00  0.00000000000E+00  0.17079933755E+03  0.18858511283E+03  0.79949553292E+02 0.  0.
      -11    1    3    3    0    0  0.30901336513E+02 -0.31822837929E+01  0.14474418701E+03  0.14804019455E+03  0.00000000000E+00 0.  1.
       12    1    3    3    0    0 -0.30901336513E+02  0.31822837929E+01  0.26055150541E+02  0.40544918278E+02  0.00000000000E+00 0. -1.
</event>
<event>
 5   1  0.7748900E+01  0.8040000E+02  0.7957747E-01  0.1297830E+00
       -1   -1    0    0    0  501  0.00000000000E+00  0.00000000000E+00  0.17148413615E+03  0.17148413615E+03  0.00000000000E+00 0.  1.
        2   -1    0    0  501    0  0.00000000000E+00  0.00000000000E+00 -0.91735072200E+01  0.91735072200E+01  0.00000000000E+00 0. -1.
       24    2    1    2    0    0  0.00000000000E+00  0.00000000000E+00  0.16231062893E+03  0.18065764337E+03  0.79324925744E+02 0.  0.
      -11    1    3    3    0    0  0.27806551323E+02  0.20599745263E+02  0.12529047284E+03  0.12998175405E+03  0.00000000000E+00 0.  1.
       12    1    3    3    0    0 -0.27806551323E+02 -0.20599745263E+02  0.37020156086E+02  0.50675889317E+02  0.00000000000E+00 0. -1.
</event>
<event>
 5   1  0.7748900E+01  0.8040000E+02  0.7957747E-01  0.1297830E+00
        2   -1    0    0  501    0  0.00000000000E+00  0.00000000000E+00  0.88610437851E+03  0.88610437851E+03  0.00000000000E+00 0. -1.
       -1   -1    0    0    0  501  0.00000000000E+00  0.00000000000E+00 -0.19483174870E+01  0.19483174870E+01  0.00000000000E+00 0.  1.
       24    2    1    2    0    0  0.00000000000E+00  0.00000000000E+00  0.88415606102E+03  0.88805269600E+03  0.83100244427E+02 0.  0.
      -11    1    3    3    0    0 -0.41103284646E+02 -0.38206643923E+01  0.39157341432E+03  0.39374333809E+03  0.00000000000E+00 0.  1.
       12    1    3    3    0    0  0.41103284646E+02  0.38206643923E+01  0.49258264670E+03  0.49430935791E+03  0.00000000000E+00 0. -1.
</event>
<event>
 5   2  0.7748900E+01  0.8040000E+02  0.7957747E-01  0.1297830E+00
        1   -1    0    0  501    0  0.00000000000E+00  0.00000000000E+00  0.73907946734E+03  0.73907946734E+03  0.00000000000E+00 0. -1.
       -2   -1    0    0    0  501  0.00000000000E+00  0.00000000000E+00 -0.21000087694E+01  0.21000087694E+01  0.00000000000E+00 0.  1.
      -24    2    1    2    0    0  0.00000000000E+00  0.00000000000E+00  0.73697945857E+03  0.74117947611E+03  0.78792724606E+02 0.  0.
       11    1    3    3    0    0  0.17984775664E+02  0.29182745692E+02  0.55113202302E+03  0.55219705867E+03  0.00000000000E+00 0. -1.
      -12    1    3    3    0    0 -0.17984775664E+02 -0.29182745692E+02  0.18584743555E+03  0.18898241744E+03  0.00000000000E+00 0.  1.
</event>
<event>
 5   2  0.7748900E+01  0.8040000E+02  0.7957747E-01  0.1297830E+00
        1   -1    0    0  501    0  0.00000000000E+00  0.00000000000E+00  0.33836927799E+01  0.33836927799E+01  0.00000000000E+00 0. -1.
       -2   -1    0    0    0  501  0.00000000000E+00  0.00000000000E+00 -0.48075512181E+03  0.48075512181E+03  0.00000000000E+00 0.  1.
      -24    2    1    2    0    0  0.00000000000E+00  0.00000000000E+00 -0.47737142903E+03  0.48413881459E+03  0.80665423436E+02 0.  0.
       11    1    3    3    0    0  0.37113879189E+02 -0.13192759145E+02 -0.18662583467E+03  0.19073723048E+03  0.00000000000E+00 0. -1.
      -12    1    3    3    0    0 -0.37113879189E+02  0.13192759145E+02 -0.29074559436E+03  0.29340158411E+03  0.00000000000E+00 0.  1.
</event>
<event>
 5   2  0.7748900E+01  0.8040000E+02  0.7957747E-01  0.1297830E+00
       -2   -1    0    0    0  501  0.00000000000E+00  0.00000000000E+00  0.17630543370E+02  0.17630543370E+02  0.00000000000E+00 0.  1.
        1   -1    0    0  501    0  0.00000000000E+00  0.00000000000E+00 -0.95043939435E+02  0.95043939435E+02  0.00000000000E+00 0. -1.
      -24    2    1    2    0    0  0.00000000000E+00  0.00000000000E+00 -0.77413396065E+02  0.11267448281E+03  0.81870050599E+02 0.  0.
       11    1    3    3    0    0 -0.16274191131E+02 -0.14390146278E+02 -0.86456193699E+02  0.89143698800E+02  0.00000000000E+00 0. -1.
      -12    1    3    3    0    0  0.16274191131E+02  0.14390146278E+02  0.90427976331E+01  0.23530784005E+02  0.00000000000E+00 0.  1.
</event>
<event>
 5   1  0.7748900E+01  0.8040000E+02  0.7957747E-01  0.1297830E+00
       -1   -1    0    0    0  501  0.00000000000E+00  0.00000000000E+00  0.30679628092E+01  0.30679628092E+01  0.00000000000E+00 0.  1.
        2   -1    0    0  501    0  0.00000000000E+00  0.00000000000E+00 -0.54689145939E+03  0.54689145939E+03  0.00000000000E+00 0. -1.
       24    2    1    2    0    0  0.00000000000E+00  0.00000000000E+00 -0.54382349658E+03  0.54995942220E+03  0.81922955467E+02 0.  0.
      -11    1    3    3    0    0  0.27687334470E+02  0.27058286757E+02 -0.36175321062E+03  0.36381880760E+03  0.00000000000E+00 0.  1.
       12    1    3    3    0    0 -0.27687334470E+02 -0.27058286757E+02 -0.18207028596E+03  0.18614061460E+03  0.00000000000E+00 0. -1.
</event>
<event>
 5   1  0.7748900E+01  0.8040000E+02  0.7957747E-01  0.1297830E+00
       -1   -1    0    0    0  501  0.00000000000E+00  0.00000000000E+00  0.17812736915E+01  0.17812736915E+01  0.00000000000E+00 0.  1.
        2   -1    0    0  501    0  0.00000000000E+00  0.00000000000E+00 -0.93547058360E+03  0.93547058360E+03  0.00000000000E+00 0. -1.
       24    2    1    2    0    0  0.00000000000E+00  0.00000000000E+00 -0.93368930991E+03  0.93725185729E+03  0.81641389986E+02 0.  0.
      -11    1    3    3    0    0  0.20363817546E+02 -0.15634922104E+02 -0.10250844984E+03  0.10567458608E+03  0.00000000000E+00 0.  1.
       12    1    3    3    0    0 -0.20363817546E+02  0.15634922104E+02 -0.83118086006E+03  0.83157727121E+03  0.00000000000E+00 0. -1.
</event>
<event>
 5   1  0.7748900E+01  0.8040000E+02  0.7957747E-01  0.1297830E+00
        2   -1    0    0  501    0  0.00000000000E+00  0.00000000000E+00  0.18785091303E+03  0.18785091303E+03  0.00000000000E+00 0. -1.
       -1   -1    0    0    0  501  0.00000000000E+00  0.00000000000E+00 -0.88447525234E+01  0.88447525234E+01  0.00000000000E+00 0.  1.
       24    2    1    2    0    0  0.00000000000E+00  0.00000000000E+00  0.17900616051E+03  0.19669566555E+03  0.81522876226E+02 0.  0.
      -11    1    3    3    0    0 -0.34279682073E+02 -0.21608991139E+02  0.10014382808E+03  0.10803162224E+03  0.00000000000E+00 0.  1.
       12    1    3    3    0    0  0.34279682073E+02  0.21608991139E+02  0.78862332428E+02  0.88664043315E+02  0.00000000000E+00 0. -1.
</event>
<event>
 5   2  0.7748900E+01  0.8040000E+02  0.7957747E-01  0.1297830E+00
        1   -1    0    0  501    0  0.00000000000E+00  0.00000000000E+00  0.70494876643E+02  0.70494876643E+02  0.00000000000E+00 0. -1.
       -2   -1    0    0    0  501  0.00000000000E+00  0.00000000000E+00 -0.17639028407E+02  0.17639028407E+02  0.00000000000E+00 0.  1.
      -24    2    1    2    0    0  0.00000000000E+00  0.00000000000E+00  0.52855848236E+02  0.88133905050E+02  0.70525488489E+02 0.  0.
       11    1    3    3    0    0  0.90186992712E+01  0.22401433590E+02  0.58539938420E+02  0.63325236310E+02  0.00000000000E+00 0. -1.
      -12    1    3    3    0    0 -0.90186992712E+01 -0.22401433590E+02 -0.56840901847E+01  0.24808668740E+02  0.00000000000E+00 0.  1.
</event>
<event>
 5   1  0.7748900E+01  0.8040000E+02  0.7957747E-01  0.1297830E+00
        2   -1    0    0  501    0  0.00000000000E+00  0.00000000000E+00  0.45644133112E+01  0.45644133112E+01  0.00000000000E+00 0. -1.
       -1   -1    0    0    0  501  0.00000000000E+00  0.00000000000E+00 -0.35634597587E+03  0.35634597587E+03  0.00000000000E+00 0.  1.
       24    2    1    2    0    0  0.00000000000E+00  0.00000000000E+00 -0.35178156256E+03  0.36091038918E+03  0.80660035102E+02 0.  0.
      -11    1    3    3    0    0  0.44087719774E+01  0.74908833022E+01 -0.35210511642E+03  0.35221238424E+03  0.00000000000E+00 0.  1.
       12    1    3    3    0    0 -0.44087719774E+01 -0.74908833022E+01  0.32355385333E+00  0.86980049490E+01  0.00000000000E+00 0. -1.
</event>
<event>
 5   1  0.7748900E+01  0.8040000E+02  0.7957747E-01  0.1297830E+00
       -1   -1    0    0    0  501  0.00000000000E+00  0.00000000000E+00  0.62694944593E+01  0.62694944593E+01  0.00000000000E+00 0.  1.
        2   -1    0    0  501    0  0.00000000000E+00  0.00000000000E+00 -0.26041605751E+03  0.26041605751E+03  0.00000000000E+00 0. -1.
       24    2    1    2    0    0  0.00000000000E+00  0.00000000000E+00 -0.25414656305E+03  0.26668555197E+03  0.80812796750E+02 0.  0.
      -11    1    3    3    0    0 -0.38616997897E+02 -0.33020639690E+01 -0.89374608336E+02  0.97416614437E+02  0.00000000000E+00 0.  1.
       12    1    3    3    0    0  0.38616997897E+02  0.33020639690E+01 -0.16477195471E+03  0.16926893753E+03  0.00000000000E+00 0. -1.
</event>
<event>
 5   2  0.7748900E+01  0.8040000E+02  0.7957747E-01  0.1297830E+00
        1   -1    0    0  501    0  0.00000000000E+00  0.00000000000E+00  0.40660245669E+03  0.40660245669E+03  0.00000000000E+00 0. -1.
       -2   -1    0    0    0  501  0.00000000000E+00  0.00000000000E+00 -0.39537413202E+01  0.39537413202E+01  0.00000000000E+00 0.  1.
      -24    2    1    2    0    0  0.00000000000E+00  0.00000000000E+00  0.40264871537E+03  0.41055619801E+03  0.80189798202E+02 0.  0.
       11    1    3    3    0    0 -0.23980204637E+01 -0.16063910114E+02  0.38900566004E+03  0.38934458164E+03  0.00000000000E+00 0. -1.
      -12    1    3    3    0    0  0.23980204637E+01  0.16063910114E+02  0.13643055334E+02  0.21211616373E+02  0.00000000000E+00 0.  1.
</event>
<event>
 5   2  0.7748900E+01  0.8040000E+02  0.7957747E-01  0.1297830E+00
        1   -1    0    0  501    0  0.00000000000E+00  0.00000000000E+00  0.13719417198E+03  0.13719417198E+03  0.00000000000E+00 0. -1.
       -2   -1    0    0    0  501  0.00000000000E+00  0.00000000000E+00 -0.13174604306E+02  0.13174604306E+02  0.00000000000E+00 0.  1.
      -24    2    1    2    0    0  0.00000000000E+00  0.00000000000E+00  0.12401956768E+03  0.15036877629E+03  0.85028911057E+02 0.  0.
       11    1    3    3    0    0 -0.41386523599E+02 -0.90044256832E+01  0.68520659319E+02  0.80554359106E+02  0.00000000000E+00 0. -1.
      -12    1    3    3    0    0  0.41386523599E+02  0.90044256832E+01  0.55498908358E+02  0.69814417181E+02  0.00000000000E+00 0.  1.
</event>
<event>
 5   1  0.7748900E+01  0.8040000E+02  0.7957747E-01  0.1297830E+00
        2   -1    0    0  501    0  0.00000000000E+00  0.00000000000E+00  0.15326117777E+02  0.15326117777E+02  0.00000000000E+00 0. -1.
       -1   -1    0    0    0  501  0.00000000000E+00  0.00000000000E+00 -0.10281950535E+03  0.10281950535E+03  0.00000000000E+00 0.  1.
       24    2    1    2    0    0  0.00000000000E+00  0.00000000000E+00 -0.87493387576E+02  0.11814562313E+03  0.79393295658E+02 0.  0.
      -11    1    3    3    0    0  0.16664066848E+02 -0.29856349812E+02 -0.73758179679E+02  0.81297981632E+02  0.00000000000E+00 0.  1.
       12    1    3    3    0    0 -0.16664066848E+02  0.29856349812E+02 -0.13735207897E+02  0.36847641498E+02  0.00000000000E+00 0. -1.
</event>
<event>
 5   1  0.7748900E+01  0.8040000E+02  0.7957747E-01  0.1297830E+00
        2   -1    0    0  501    0  0.00000000000E+00  0.00000000000E+00  0.24807670313E+03  0.24807670313E+03  0.00000000000E+00 0. -1.
       -1   -1    0    0    0  501  0.00000000000E+00  0.00000000000E+00 -0.68271591739E+01  0.68271591739E+01  0.00000000000E+00 0.  1.
       24    2    1    2    0    0  0.00000000000E+00  0.00000000000E+00  0.24124954395E+03  0.25490386230E+03  0.82308180385E+02 0.  0.
      -11    1    3    3    0    0 -0.40411838251E+02 -0.65480815737E+00  0.14463631818E+03  0.15017726187E+03  0.00000000000E+00 0.  1.
       12    1    3    3    0    0  0.40411838251E+02  0.65480815737E+00  0.96613225769E+02  0.10472660043E+03  0.00000000000E+00 0. -1.
</event>
<event>
 5   1  0.7748900E+01  0.8040000E+02  0.7957747E-01  0.1297830E+00
       -1   -1    0    0    0  501  0.00000000000E+00  0.00000000000E+00  0.26037370307E+02  0.26037370307E+02  0.00000000000E+00 0.  1.
        2   -1    0    0  501    0  0.00000000000E+00  0.00000000000E+00 -0.65835753570E+02  0.65835753570E+02  0.00000000000E+00 0. -1.
       24    2    1    2    0    0  0.00000000000E+00  0.00000000000E+00 -0.39798383263E+02  0.91873123877E+02  0.82805552837E+02 0.  0.
      -11    1    3    3    0    0 -0.10246172879E+01  0.17494941729E+00  0.26022891198E+02  0.26043642491E+02  0.00000000000E+00 0.  1.
       12    1    3    3    0    0  0.10246172879E+01 -0.17494941729E+00 -0.65821274461E+02  0.65829481386E+02  0.00000000000E+00 0. -1.
</event>
<event>
 5   1  0.7748900E+01  0.8040000E+02  0.7957747E-01  0.1297830E+00
        2   -1    0    0  501    0  0.00000000000E+00  0.00000000000E+00  0.24909718614E+01  0.24909718614E+01  0.00000000000E+00 0. -1.
       -1   -1    0    0    0  501  0.00000000000E+00  0.00000000000E+00 -0.66384041331E+03  0.66384041331E+03  0.00000000000E+00 0.  1.
       24    2    1    2    0    0  0.00000000000E+00  0.00000000000E+00 -0.66134944145E+03  0.66633138517E+03  0.81329153198E+02 0.  0.
      -11    1    3    3    0    0  0.12418036530E+02  0.29005204389E+01 -0.64703428448E+03  0.64715993846E+03  0.00000000000E+00 0.  1.
       12    1    3    3    0    0 -0.12418036530E+02 -0.29005204389E+01 -0.14315156966E+02  0.19171446712E+02  0.00000000000E+00 0. -1.
</event>
<event>
 5   2  0.7748900E+01  0.8040000E+02  0.7957747E-01  0.1297830E+00
        1   -1    0    0  501    0  0.00000000000E+00  0.00000000000E+00  0.43104494535E+01  0.43104494535E+01  0.00000000000E+00 0. -1.
       -2   -1    0    0    0  501  0.00000000000E+00  0.00000000000E+00 -0.37193463980E+03  0.37193463980E+03  0.00000000000E+00 0.  1.
      -24    2    1    2    0    0  0.00000000000E+00  0.00000000000E+00 -0.36762419035E+03  0.37624508925E+03  0.80080096525E+02 0.  0.
       11    1    3    3    0    0 -0.15089220427E+02  0.21266337054E+02 -0.41051234953E+02  0.48632762167E+02  0.00000000000E+00 0. -1.
      -12    1    3    3    0    0  0.15089220427E+02 -0.21266337054E+02 -0.32657295539E+03  0.32761232709E+03  0.00000000000E+00 0.  1.
</event>
<event>
 5   1  0.7748900E+01  0.8040000E+02  0.7957747E-01  0.1297830E+00
       -1   -1    0    0    0  501  0.00000000000E+00  0.00000000000E+00  0.25633816703E+02  0.25633816703E+02  0.00000000000E+00 0.  1.
        2   -1    0    0  501    0  0.00000000000E+00  0.00000000000E+00 -0.64612310735E+02  0.64612310735E+02  0.00000000000E+00 0. -1.
       24    2    1    2    0    0  0.00000000000E+00  0.00000000000E+00 -0.38978494032E+02  0.90246127438E+02  0.81394351896E+02 0.  0.
      -11    1    3    3    0    0 -0.22173822716E+02  0.18342234839E+02  0.12417848422E+02  0.31341967905E+02  0.00000000000E+00 0.  1.
       12    1    3    3    0    0  0.22173822716E+02 -0.18342234839E+02 -0.51396342454E+02  0.58904159533E+02  0.00000000000E+00 0. -1.
</event>
<event>
 5   2  0.7748900E+01  0.8040000E+02  0.7957747E-01  0.1297830E+00
        3   -1    0    0  501    0  0.00000000000E+00  0.00000000000E+00  0.17050209392E+02  0.17050209392E+02  0.00000000000E+00 0. -1.
       -4   -1    0    0    0  501  0.00000000000E+00  0.00000000000E+00 -0.94694947136E+02  0.94694947136E+02  0.00000000000E+00 0.  1.
      -24    2    1    2    0    0  0.00000000000E+00  0.00000000000E+00 -0.77644737744E+02  0.11174515653E+03  0.80363391591E+02 0.  0.
       11    1    3    3    0    0  0.21530813364E+02  0.59733452387E+01  0.76151084511E+01  0.23606072401E+02  0.00000000000E+00 0. -1.
      -12    1    3    3    0    0 -0.21530813364E+02 -0.59733452387E+01 -0.85259846196E+02  0.88139084127E+02  0.00000000000E+00 0.  1.
</event>
<event>
 5   2  0.7748900E+01  0.8040000E+02  0.7957747E-01  0.1297830E+00
       -2   -1    0    0    0  501  0.00000000000E+00  0.00000000000E+00  0.10522550823E+02  0.10522550823E+02  0.00000000000E+00 0.  1.
        1   -1    0    0  501    0  0.00000000000E+00  0.00000000000E+00 -0.15265856476E+03  0.15265856476E+03  0.00000000000E+00 0. -1.
      -24    2    1    2    0    0  0.00000000000E+00  0.00000000000E+00 -0.14213601394E+03  0.16318111558E+03  0.80158780085E+02 0.  0.
       11    1    3    3    0    0 -0.26407154525E+01  0.29265567628E+02 -0.12655447737E+03  0.12992106284E+03  0.00000000000E+00 0. -1.
      -12    1    3    3    0    0  0.26407154525E+01 -0.29265567628E+02 -0.15581536566E+02  0.33260052743E+02  0.00000000000E+00 0.  1.
</event>
<event>
 5   2  0.7748900E+01  0.8040000E+02  0.7957747E-01  0.1297830E+00
       -2   -1    0    0    0  501  0.00000000000E+00  0.00000000000E+00  0.41238545728E+02  0.41238545728E+02  0.00000000000E+00 0.  1.
        1   -1    0    0  501    0  0.00000000000E+00  0.00000000000E+00 -0.38774128047E+02  0.38774128047E+02  0.00000000000E+00 0. -1.
      -24    2    1    2    0    0  0.00000000000E+00  0.00000000000E+00  0.24644176802E+01  0.80012673775E+02  0.79974712317E+02 0.  0.
       11    1    3    3    0    0 -0.26678783570E+02 -0.11161929898E+02 -0.26396881932E+02  0.39155351455E+02  0.00000000000E+00 0. -1.
      -12    1    3    3    0    0  0.26678783570E+02  0.11161929898E+02  0.28861299612E+02  0.40857322320E+02  0.00000000000E+00 0.  1.
</event>
<event>
 5   2  0.7748900E+01  0.8040000E+02  0.7957747E-01  0.1297830E+00
       -2   -1    0    0    0  501  0.00000000000E+00  0.00000000000E+00  0.50019007965E+01  0.50019007965E+01  0.00000000000E+00 0.  1.
        1   -1    0    0  501    0  0.00000000000E+00  0.00000000000E+00 -0.30791022704E+03  0.30791022704E+03  0.00000000000E+00 0. -1.
      -24    2    1    2    0    0  0.00000000000E+00  0.00000000000E+00 -0.30290832624E+03  0.31291212783E+03  0.78489143450E+02 0.  0.
       11    1    3    3    0    0  0.60483148943E+01  0.18581182173E+02 -0.28713615266E+03  0.28780029987E+03  0.00000000000E+00 0. -1.
      -12    1    3    3    0    0 -0.60483148943E+01 -0.18581182173E+02 -0.15772173583E+02  0.25111827961E+02  0.00000000000E+00 0.  1.
</event>
<event>
 5   1  0.7748900E+01  0.8040000E+02  0.7957747E-01  0.1297830E+00
       -1   -1    0    0    0  501  0.00000000000E+00  0.00000000000E+00  0.14536627854E+01  0.14536627854E+01  0.00000000000E+00 0.  1.
        2   -1    0    0  501    0  0.00000000000E+00  0.00000000000E+00 -0.10897131060E+04  0.10897131060E+04  0.00000000000E+00 0. -1.
       24    2    1    2    0    0  0.00000000000E+00  0.00000000000E+00 -0.10882594432E+04  0.10911667688E+04  0.79600889166E+02 0.  0.
      -11    1    3    3    0    0  0.64756440835E+01  0.11138991778E+02 -0.27925951900E+02  0.30754997864E+02  0.00000000000E+00 0.  1.
       12    1    3    3    0    0 -0.64756440835E+01 -0.11138991778E+02 -0.10603334913E+04  0.10604117709E+04  0.00000000000E+00 0. -1.
</event>
<event>
 5   2  0.7748900E+01  0.8040000E+02  0.7957747E-01  0.1297830E+00
       -2   -1    0    0    0  501  0.00000000000E+00  0.00000000000E+00  0.82270660907E+02  0.82270660907E+02  0.00000000000E+00 0.  1.
        1   -1    0    0  501    0  0.00000000000E+00  0.00000000000E+00 -0.20160258992E+02  0.20160258992E+02  0.00000000000E+00 0. -1.
      -24    2    1    2    0    0  0.00000000000E+00  0.00000000000E+00  0.62110401915E+02  0.10243091990E+03  0.81451773003E+02 0.  0.
       11    1    3    3    0    0  0.73480652587E+01 -0.39464370384E+02  0.22418442857E+02  0.45978442481E+02  0.00000000000E+00 0. -1.
      -12    1    3    3    0    0 -0.73480652587E+01  0.39464370384E+02  0.39691959057E+02  0.56452477418E+02  0.00000000000E+00 0.  1.
</event>
<event>
 5   2  0.7748900E+01  0.8040000E+02  0.7957747E-01  0.1297830E+00
       -2   -1    0    0    0  501  0.00000000000E+00  0.00000000000E+00  0.17424653519E+02  0.17424653519E+02  0.00000000000E+00 0.  1.
        1   -1    0    0  501    0  0.00000000000E+00  0.00000000000E+00 -0.95490032287E+02  0.95490032287E+02  0.00000000000E+00 0. -1.
      -24    2    1    2    0    0  0.00000000000E+00  0.00000000000E+00 -0.78065378768E+02  0.11291468581E+03  0.81581388249E+02 0.  0.
       11    1    3    3    0    0  0.32241417154E+02 -0.16067393949E+02 -0.65519202836E+02  0.74769218725E+02  0.00000000000E+00 0. -1.
      -12    1    3    3    0    0 -0.32241417154E+02  0.16067393949E+02 -0.12546175932E+02  0.38145467082E+02  0.00000000000E+00 0.  1.
</event>
<event>
 5   1  0.7748900E+01  0.8040000E+02  0.7957747E-01  0.1297830E+00
       -1   -1    0    0    0  501  0.00000000000E+00  0.00000000000E+00  0.18056804541E+02  0.18056804541E+02  0.00000000000E+00 0.  1.
        2   -1    0    0  501    0  0.00000000000E+00  0.00000000000E+00 -0.89703772052E+02  0.89703772052E+02  0.00000000000E+00 0. -1.
       24    2    1    2    0    0  0.00000000000E+00  0.00000000000E+00 -0.71646967512E+02  0.10776057659E+03  0.80492570552E+02 0.  0.
      -11    1    3    3    0    0  0.16820536559E+02 -0.32449117418E+02 -0.13266684236E+02  0.38882908610E+02  0.00000000000E+00 0.  1.
       12    1    3    3    0    0 -0.16820536559E+02  0.32449117418E+02 -0.58380283276E+02  0.68877667983E+02  0.00000000000E+00 0. -1.
</event>
<event>
 5   1  0.7748900E+01  0.8040000E+02  0.7957747E-01  0.1297830E+00
        2   -1    0    0  501    0  0.00000000000E+00  0.00000000000E+00  0.11972890975E+04  0.11972890975E+04  0.00000000000E+00 0. -1.
       -1   -1    0    0    0  501  0.00000000000E+00  0.00000000000E+00 -0.13612427566E+01  0.13612427566E+01  0.00000000000E+00 0.  1.
       24    2    1    2    0    0  0.00000000000E+00  0.00000000000E+00  0.11959278548E+04  0.11986503403E+04  0.80741590562E+02 0.  0.
      -11    1    3    3    0    0 -0.37852551770E+01  0.15846101622E+02  0.49608769577E+02  0.52215487285E+02  0.00000000000E+00 0.  1.
       12    1    3    3    0    0  0.37852551770E+01 -0.15846101622E+02  0.11463190852E+04  0.11464348530E+04  0.00000000000E+00 0. -1.
</event>
<event>
 5   2  0.7748900E+01  0.8040000E+02  0.7957747E-01  0.1297830E+00
        3   -1    0    0  501    0  0.00000000000E+00  0.00000000000E+00  0.41384063220E+03  0.41384063220E+03  0.00000000000E+00 0. -1.
       -4   -1    0    0    0  501  0.00000000000E+00  0.00000000000E+00 -0.38291306715E+01  0.38291306715E+01  0.00000000000E+00 0.  1.
      -24    2    1    2    0    0  0.00000000000E+00  0.00000000000E+00  0.41001150153E+03  0.41766976287E+03  0.79615321587E+02 0.  0.
       11    1    3    3    0    0 -0.26899278591E+02 -0.24431432345E+02  0.11973708662E+03  0.12512967669E+03  0.00000000000E+00 0. -1.
      -12    1    3    3    0    0  0.26899278591E+02  0.24431432345E+02  0.29027441491E+03  0.29254008619E+03  0.00000000000E+00 0.  1.
</event>
<event>
 5   1  0.7748900E+01  0.8040000E+02  0.7957747E-01  0.1297830E+00
       -1   -1    0    0    0  501  0.00000000000E+00  0.00000000000E+00  0.35090008976E+01  0.35090008976E+01  0.00000000000E+00 0.  1.
        2   -1    0    0  501    0  0.00000000000E+00  0.00000000000E+00 -0.43950014594E+03  0.43950014594E+03  0.00000000000E+00 0. -1.
       24    2    1    2    0    0  0.00000000000E+00  0.00000000000E+00 -0.43599114505E+03  0.44300914684E+03  0.78541871804E+02 0.  0.
      -11    1    3    3    0    0  0.35092053420E+02 -0.17450636443E+02 -0.20391768846E+03  0.20764970646E+03  0.00000000000E+00 0.  1.
       12    1    3    3    0    0 -0.35092053420E+02  0.17450636443E+02 -0.23207345658E+03  0.23535944038E+03  0.00000000000E+00 0. -1.
</event>
<event>
 5   1  0.7748900E+01  0.8040000E+02  0.7957747E-01  0.1297830E+00
       -1   -1    0    0    0  501  0.00000000000E+00  0.00000000000E+00  0.88435180673E+03  0.88435180673E+03  0.00000000000E+00 0.  1.
        2   -1    0    0  501    0  0.00000000000E+00  0.00000000000E+00 -0.18056214673E+01  0.18056214673E+01  0.00000000000E+00 0. -1.
       24    2    1    2    0    0  0.00000000000E+00  0.00000000000E+00  0.88254618526E+03  0.88615742819E+03  0.79920075247E+02 0.  0.
      -11    1    3    3    0    0  0.20805245990E+02  0.34058977735E+02  0.46326094619E+03  0.46497696340E+03  0.00000000000E+00 0.  1.
       12    1    3    3    0    0 -0.20805245990E+02 -0.34058977735E+02  0.41928523907E+03  0.42118046479E+03  0.00000000000E+00 0. -1.
</event>
<event>
 5   2  0.7748900E+01  0.8040000E+02  0.7957747E-01  0.1297830E+00
        1   -1    0    0  501    0  0.00000000000E+00  0.00000000000E+00  0.43685500815E+03  0.43685500815E+03  0.00000000000E+00 0. -1.
       -2   -1    0    0    0  501  0.00000000000E+00  0.00000000000E+00 -0.36898539934E+01  0.36898539934E+01  0.00000000000E+00 0.  1.
      -24    2    1    2    0    0  0.00000000000E+00  0.00000000000E+00  0.43316515416E+03  0.44054486214E+03  0.80297725905E+02 0.  0.
       11    1    3    3    0    0 -0.16745387393E+02 -0.69593997874E+01  0.41310650996E+03  0.41350432866E+03  0.00000000000E+00 0. -1.
      -12    1    3    3    0    0  0.16745387393E+02  0.69593997874E+01  0.20058644193E+02  0.27040533486E+02  0.00000000000E+00 0.  1.
</event>
<event>
 5   1  0.7748900E+01  0.8040000E+02  0.7957747E-01  0.1297830E+00
        2   -1    0    0  501    0  0.00000000000E+00  0.00000000000E+00  0.25612820455E+03  0.25612820455E+03  0.00000000000E+00 0. -1.
       -1   -1    0    0    0  501  0.00000000000E+00  0.00000000000E+00 -0.63467169879E+01  0.63467169879E+01  0.00000000000E+00 0.  1.
       24    2    1    2    0    0  0.00000000000E+00  0.00000000000E+00  0.24978148756E+03  0.26247492154E+03  0.80636796238E+02 0.  0.
      -11    1    3    3    0    0 -0.30713818192E+02 -0.23203225014E+02  0.85851458637E+02  0.94086137284E+02  0.00000000000E+00 0.  1.
       12    1    3    3    0    0  0.30713818192E+02  0.23203225014E+02  0.16393002892E+03  0.16838878425E+03  0.00000000000E+00 0. -1.
</event>
<event>
 5   1  0.7748900E+01  0.8040000E+02  0.7957747E-01  0.1297830E+00
        2   -1    0    0  501    0  0.00000000000E+00  0.00000000000E+00  0.74268790789E+03  0.74268790789E+03  0.00000000000E+00 0. -1.
       -1   -1    0    0    0  501  0.00000000000E+00  0.00000000000E+00 -0.21041394655E+01  0.21041394655E+01  0.00000000000E+00 0.  1.
       24    2    1    2    0    0  0.00000000000E+00  0.00000000000E+00  0.74058376842E+03  0.74479204736E+03  0.79062480040E+02 0.  0.
      -11    1    3    3    0    0 -0.33755625875E+02  0.13163777786E+00  0.17648559422E+03  0.17968479227E+03  0.00000000000E+00 0.  1.
       12    1    3    3    0    0  0.33755625875E+02 -0.13163777786E+00  0.56409817421E+03  0.56510725509E+03  0.00000000000E+00 0. -1.
</event>
<event>
 5   2  0.7748900E+01  0.8040000E+02  0.7957747E-01  0.1297830E+00
        1   -1    0    0  501    0  0.00000000000E+00  0.00000000000E+00  0.59054349938E+01  0.59054349938E+01  0.00000000000E+00 0. -1.
       -2   -1    0    0    0  501  0.00000000000E+00  0.00000000000E+00 -0.26036153491E+03  0.26036153491E+03  0.00000000000E+00 0.  1.
      -24    2    1    2    0    0  0.00000000000E+00  0.00000000000E+00 -0.25445609991E+03  0.26626696990E+03  0.78423162886E+02 0.  0.
       11    1    3    3    0    0 -0.61804371000E+01 -0.29846849140E+02 -0.43473403051E+02  0.53093963679E+02  0.00000000000E+00 0. -1.
      -12    1    3    3    0    0  0.61804371000E+01  0.29846849140E+02 -0.21098269686E+03  0.21317300622E+03  0.00000000000E+00 0.  1.
</event>
<event>
 5   2  0.7748900E+01  0.8040000E+02  0.7957747E-01  0.1297830E+00
       -2   -1    0    0    0  501  0.00000000000E+00  0.00000000000E+00  0.40275417597E+02  0.40275417597E+02  0.00000000000E+00 0.  1.
        1   -1    0    0  501    0  0.00000000000E+00  0.00000000000E+00 -0.40668130308E+02  0.40668130308E+02  0.00000000000E+00 0. -1.
      -24    2    1    2    0    0  0.00000000000E+00  0.00000000000E+00 -0.39271271177E+00  0.80943547905E+02  0.80942595240E+02 0.  0.
       11    1    3    3    0    0  0.18255516598E+01 -0.36307080720E+02 -0.17983897765E+02  0.40558073526E+02  0.00000000000E+00 0. -1.
      -12    1    3    3    0    0 -0.18255516598E+01  0.36307080720E+02  0.17591185053E+02  0.40385474380E+02  0.00000000000E+00 0.  1.
</event>
<event>
 5   1  0.7748900E+01  0.8040000E+02  0.7957747E-01  0.1297830E+00
       -3   -1    0    0    0  501  0.00000000000E+00  0.00000000000E+00  0.24111521886E+03  0.24111521886E+03  0.00000000000E+00 0.  1.
        4   -1    0    0  501    0  0.00000000000E+00  0.00000000000E+00 -0.67325627345E+01  0.67325627345E+01  0.00000000000E+00 0. -1.
       24    2    1    2    0    0  0.00000000000E+00  0.00000000000E+00  0.23438265613E+03  0.24784778159E+03  0.80580973864E+02 0.  0.
      -11    1    3    3    0    0 -0.31016156166E+02 -0.22938325080E+02  0.15294889816E+03  0.15773881624E+03  0.00000000000E+00 0.  1.
       12    1    3    3    0    0  0.31016156166E+02  0.22938325080E+02  0.81433757970E+02  0.90108965358E+02  0.00000000000E+00 0. -1.
</event>
<event>
 5   1  0.7748900E+01  0.8040000E+02  0.7957747E-01  0.1297830E+00
       -3   -1    0    0    0  501  0.00000000000E+00  0.00000000000E+00  0.15495896027E+02  0.15495896027E+02  0.00000000000E+00 0.  1.
        4   -1    0    0  501    0  0.00000000000E+00  0.00000000000E+00 -0.10355816289E+03  0.10355816289E+03  0.00000000000E+00 0. -1.
       24    2    1    2    0    0  0.00000000000E+00  0.00000000000E+00 -0.88062266861E+02  0.11905405892E+03  0.80118075985E+02 0.  0.
      -11    1    3    3    0    0 -0.26353856968E+02 -0.12591115500E+02 -0.32906918646E+01  0.29392016255E+02  0.00000000000E+00 0.  1.
       12    1    3    3    0    0  0.26353856968E+02  0.12591115500E+02 -0.84771574996E+02  0.89662042660E+02  0.00000000000E+00 0. -1.
</event>
<event>
 5   1  0.7748900E+01  0.8040000E+02  0.7957747E-01  0.1297830E+00
       -1   -1    0    0    0  501  0.00000000000E+00  0.00000000000E+00  0.12425873112E+03  0.12425873112E+03  0.00000000000E+00 0.  1.
        2   -1    0    0  501    0  0.00000000000E+00  0.00000000000E+00 -0.15187654013E+02  0.15187654013E+02  0.00000000000E+00 0. -1.
       24    2    1    2    0    0  0.00000000000E+00  0.00000000000E+00  0.10907107710E+03  0.13944638513E+03  0.86883798634E+02 0.  0.
      -11    1    3    3    0    0 -0.12877240566E+02  0.21748451833E+02  0.11124321917E+03  0.11407836032E+03  0.00000000000E+00 0.  1.
       12    1    3    3    0    0  0.12877240566E+02 -0.21748451833E+02 -0.21721420645E+01  0.25368024812E+02  0.00000000000E+00 0. -1.
</event>
<event>
 5   1  0.7748900E+01  0.8040000E+02  0.7957747E-01  0.1297830E+00
       -1   -1    0    0    0  501  0.00000000000E+00  0.00000000000E+00  0.78555036832E+02  0.78555036832E+02  0.00000000000E+00 0.  1.
        2   -1    0    0  501    0  0.00000000000E+00  0.00000000000E+00 -0.20911174021E+02  0.20911174021E+02  0.00000000000E+00 0. -1.
       24    2    1    2    0    0  0.00000000000E+00  0.00000000000E+00  0.57643862811E+02  0.99466210853E+02  0.81059929569E+02 0.  0.
      -11    1    3    3    0    0 -0.10160584459E+02 -0.13037401890E+02  0.74231261329E+02  0.76049270102E+02  0.00000000000E+00 0.  1.
       12    1    3    3    0    0  0.10160584459E+02  0.13037401890E+02 -0.16587398517E+02  0.23416940752E+02  0.00000000000E+00 0. -1.
</event>
<event>
 5   1  0.7748900E+01  0.8040000E+02  0.7957747E-01  0.1297830E+00
       -1   -1    0    0    0  501  0.00000000000E+00  0.00000000000E+00  0.21395597054E+01  0.21395597054E+01  0.00000000000E+00 0.  1.
        2   -1    0    0  501    0  0.00000000000E+00  0.00000000000E+00 -0.75689305726E+03  0.75689305726E+03  0.00000000000E+00 0. -1.
       24    2    1    2    0    0  0.00000000000E+00  0.00000000000E+00 -0.75475349755E+03  0.75903261696E+03  0.80483983166E+02 0.  0.
      -11    1    3    3    0    0  0.69485551299E+01  0.39362791734E+02 -0.33343859266E+03  0.33582585795E+03  0.00000000000E+00 0.  1.
       12    1    3    3    0    0 -0.69485551299E+01 -0.39362791734E+02 -0.42131490489E+03  0.42320675902E+03  0.00000000000E+00 0. -1.
</event>
<event>
 5   1  0.7748900E+01  0.8040000E+02  0.7957747E-01  0.1297830E+00
        2   -1    0    0  501    0  0.00000000000E+00  0.00000000000E+00  0.39183819938E+02  0.39183819938E+02  0.00000000000E+00 0. -1.
       -1   -1    0    0    0  501  0.00000000000E+00  0.00000000000E+00 -0.41513755045E+02  0.41513755045E+02  0.00000000000E+00 0.  1.
       24    2    1    2    0    0  0.00000000000E+00  0.00000000000E+00 -0.23299351076E+01  0.80697574983E+02  0.80663932526E+02 0.  0.
      -11    1    3    3    0    0  0.31605435805E+02  0.35682465265E+01 -0.25975140379E+02  0.41065117477E+02  0.00000000000E+00 0.  1.
       12    1    3    3    0    0 -0.31605435805E+02 -0.35682465265E+01  0.23645205271E+02  0.39632457507E+02  0.00000000000E+00 0. -1.
</event>
<event>
 5   1  0.7748900E+01  0.8040000E+02  0.7957747E-01  0.1297830E+00
       -1   -1    0    0    0  501  0.00000000000E+00  0.00000000000E+00  0.34253115153E+01  0.34253115153E+01  0.00000000000E+00 0.  1.
        2   -1    0    0  501    0  0.00000000000E+00  0.00000000000E+00 -0.41490344146E+03  0.41490344146E+03  0.00000000000E+00 0. -1.
       24    2    1    2    0    0  0.00000000000E+00  0.00000000000E+00 -0.41147812995E+03  0.41832875298E+03  0.75396910700E+02 0.  0.
      -11    1    3    3    0    0  0.33811052962E+02  0.52486380350E+01 -0.11793506403E+03  0.12279826884E+03  0.00000000000E+00 0.  1.
       12    1    3    3    0    0 -0.33811052962E+02 -0.52486380350E+01 -0.29354306592E+03  0.29553048413E+03  0.00000000000E+00 0. -1.
</event>
<event>
 5   2  0.7748900E+01  0.8040000E+02  0.7957747E-01  0.1297830E+00
       -2   -1    0    0    0  501  0.00000000000E+00  0.00000000000E+00  0.22009260786E+02  0.22009260786E+02  0.00000000000E+00 0.  1.
        1   -1    0    0  501    0  0.00000000000E+00  0.00000000000E+00 -0.73673229976E+02  0.73673229976E+02  0.00000000000E+00 0. -1.
      -24    2    1    2    0    0  0.00000000000E+00  0.00000000000E+00 -0.51663969190E+02  0.95682490762E+02  0.80535540763E+02 0.  0.
       11    1    3    3    0    0  0.87683808864E+01  0.75810251071E+01 -0.71648321741E+02  0.72579876366E+02  0.00000000000E+00 0. -1.
      -12    1    3    3    0    0 -0.87683808864E+01 -0.75810251071E+01  0.19984352551E+02  0.23102614396E+02  0.00000000000E+00 0.  1.
</event>
<event>
 5   1  0.7748900E+01  0.8040000E+02  0.7957747E-01  0.1297830E+00
        2   -1    0    0  501    0  0.00000000000E+00  0.00000000000E+00  0.15359997406E+04  0.15359997406E+04  0.00000000000E+00 0. -1.
       -1   -1    0    0    0  501  0.00000000000E+00  0.00000000000E+00 -0.11818413548E+01  0.11818413548E+01  0.00000000000E+00 0.  1.
       24    2    1    2    0    0  0.00000000000E+00  0.00000000000E+00  0.15348178992E+04  0.15371815820E+04  0.85212863219E+02 0.  0.
      -11    1    3    3    0    0 -0.24181292554E+02 -0.11943012424E+02  0.17240205355E+03  0.17449882098E+03  0.00000000000E+00 0.  1.
       12    1    3    3    0    0  0.24181292554E+02  0.11943012424E+02  0.13624158457E+04  0.13626827610E+04  0.00000000000E+00 0. -1.
</event>
<event>
 5   1  0.7748900E+01  0.8040000E+02  0.7957747E-01  0.1297830E+00
       -1   -1    0    0    0  501  0.00000000000E+00  0.00000000000E+00  0.30565939238E+01  0.30565939238E+01  0.00000000000E+00 0.  1.
        2   -1    0    0  501    0  0.00000000000E+00  0.00000000000E+00 -0.52906505658E+03  0.52906505658E+03  0.00000000000E+00 0. -1.
       24    2    1    2    0    0  0.00000000000E+00  0.00000000000E+00 -0.52600846265E+03  0.53212165050E+03  0.80427284854E+02 0.  0.
      -11    1    3    3    0    0  0.22105381246E+02  0.28801193516E+02 -0.14860347704E+03  0.15297434431E+03  0.00000000000E+00 0.  1.
       12    1    3    3    0    0 -0.22105381246E+02 -0.28801193516E+02 -0.37740498561E+03  0.37914730619E+03  0.00000000000E+00 0. -1.
</event>
<event>
 5   1  0.7748900E+01  0.8040000E+02  0.7957747E-01  0.1297830E+00
        2   -1    0    0  501    0  0.00000000000E+00  0.00000000000E+00  0.47236139884E+03  0.47236139884E+03  0.00000000000E+00 0. -1.
       -1   -1    0    0    0  501  0.00000000000E+00  0.00000000000E+00 -0.34297224760E+01  0.34297224760E+01  0.00000000000E+00 0.  1.
       24    2    1    2    0    0  0.00000000000E+00  0.00000000000E+00  0.46893167636E+03  0.47579112131E+03  0.80500149227E+02 0.  0.
      -11    1    3    3    0    0 -0.80193225009E+01  0.38775986504E+02  0.27716106821E+03  0.27997525675E+03  0.00000000000E+00 0.  1.
       12    1    3    3    0    0  0.80193225009E+01 -0.38775986504E+02  0.19177060815E+03  0.19581586456E+03  0.00000000000E+00 0. -1.
</event>
<event>
 5   1  0.7748900E+01  0.8040000E+02  0.7957747E-01  0.1297830E+00
        2   -1    0    0  501    0  0.00000000000E+00  0.00000000000E+00  0.98187098223E+03  0.98187098223E+03  0.00000000000E+00 0. -1.
       -1   -1    0    0    0  501  0.00000000000E+00  0.00000000000E+00 -0.16120115311E+01  0.16120115311E+01  0.00000000000E+00 0.  1.
       24    2    1    2    0    0  0.00000000000E+00  0.00000000000E+00  0.98025897070E+03  0.98348299376E+03  0.79568520041E+02 0.  0.
      -11    1    3    3    0    0  0.20881330574E+02  0.22537053112E+02  0.17772219917E+03  0.18035833446E+03  0.00000000000E+00 0.  1.
       12    1    3    3    0    0 -0.20881330574E+02 -0.22537053112E+02  0.80253677153E+03  0.80312465931E+03  0.00000000000E+00 0. -1.
</event>
<event>
 5   1  0.7748900E+01  0.8040000E+02  0.7957747E-01  0.1297830E+00
       -1   -1    0    0    0  501  0.00000000000E+00  0.00000000000E+00  0.13923368364E+01  0.13923368364E+01  0.00000000000E+00 0.  1.
        2   -1    0    0  501    0  0.00000000000E+00  0.00000000000E+00 -0.11623960701E+04  0.11623960701E+04  0.00000000000E+00 0. -1.
       24    2    1    2    0    0  0.00000000000E+00  0.00000000000E+00 -0.11610037332E+04  0.11637884069E+04  0.80459850033E+02 0.  0.
      -11    1    3    3    0    0 -0.11164038017E+02 -0.19620772105E+02 -0.98855210308E+02  0.10140001503E+03  0.00000000000E+00 0.  1.
       12    1    3    3    0    0  0.11164038017E+02  0.19620772105E+02 -0.10621485229E+04  0.10623883919E+04  0.00000000000E+00 0. -1.
</event>
<event>
 5   1  0.7748900E+01  0.8040000E+02  0.7957747E-01  0.1297830E+00
       -3   -1    0    0    0  501  0.00000000000E+00  0.00000000000E+00  0.39590244481E+03  0.39590244481E+03  0.00000000000E+00 0.  1.
        4   -1    0    0  501    0  0.00000000000E+00  0.00000000000E+00 -0.33736579499E+01  0.33736579499E+01  0.00000000000E+00 0. -1.
       24    2    1    2    0    0  0.00000000000E+00  0.00000000000E+00  0.39252878686E+03  0.39927610276E+03  0.73092802117E+02 0.  0.
      -11    1    3    3    0    0  0.15738512606E+02  0.32983620262E+02  0.19702613970E+03  0.20038692500E+03  0.00000000000E+00 0.  1.
       12    1    3    3    0    0 -0.15738512606E+02 -0.32983620262E+02  0.19550264716E+03  0.19888917776E+03  0.00000000000E+00 0. -1.
</event>
<event>
 5   2  0.7748900E+01  0.8040000E+02  0.7957747E-01  0.1297830E+00
       -2   -1    0    0    0  501  0.00000000000E+00  0.00000000000E+00  0.17602739459E+02  0.17602739459E+02  0.00000000000E+00 0.  1.
        1   -1    0    0  501    0  0.00000000000E+00  0.00000000000E+00 -0.92488464035E+02  0.92488464035E+02  0.00000000000E+00 0. -1.
      -24    2    1    2    0    0  0.00000000000E+00  0.00000000000E+00 -0.74885724577E+02  0.11009120349E+03  0.80698211513E+02 0.  0.
       11    1    3    3    0    0 -0.17628619615E+02 -0.16787439411E+01 -0.86903879680E+02  0.88689744132E+02  0.00000000000E+00 0. -1.
      -12    1    3    3    0    0  0.17628619615E+02  0.16787439411E+01  0.12018155104E+02  0.21401459362E+02  0.00000000000E+00 0.  1.
</event>
<event>
 5   2  0.7748900E+01  0.8040000E+02  0.7957747E-01  0.1297830E+00
       -2   -1    0    0    0  501  0.00000000000E+00  0.00000000000E+00  0.35648923333E+01  0.35648923333E+01  0.00000000000E+00 0.  1.
        1   -1    0    0  501    0  0.00000000000E+00  0.00000000000E+00 -0.41121823718E+03  0.41121823718E+03  0.00000000000E+00 0. -1.
      -24    2    1    2    0    0  0.00000000000E+00  0.00000000000E+00 -0.40765334485E+03  0.41478312952E+03  0.76575420105E+02 0.  0.
       11    1    3    3    0    0 -0.17430862518E+02 -0.14018712522E+02 -0.37214366274E+03  0.37281532290E+03  0.00000000000E+00 0. -1.
      -12    1    3    3    0    0  0.17430862518E+02  0.14018712522E+02 -0.35509682106E+02  0.41967806616E+02  0.00000000000E+00 0.  1.
</event>
<event>
 5   1  0.7748900E+01  0.8040000E+02  0.7957747E-01  0.1297830E+00
        4   -1    0    0  501    0  0.00000000000E+00  0.00000000000E+00  0.34756286523E+03  0.34756286523E+03  0.00000000000E+00 0. -1.
       -3   -1    0    0    0  501  0.00000000000E+00  0.00000000000E+00 -0.45629960080E+01  0.45629960080E+01  0.00000000000E+00 0.  1.
       24    2    1    2    0    0  0.00000000000E+00  0.00000000000E+00  0.34299986922E+03  0.35212586124E+03  0.79647422220E+02 0.  0.
      -11    1    3    3    0    0 -0.15976775405E+02 -0.35666634620E+02  0.13766749106E+03  0.14310731732E+03  0.00000000000E+00 0.  1.
       12    1    3    3    0    0  0.15976775405E+02  0.35666634620E+02  0.20533237816E+03  0.20901854391E+03  0.00000000000E+00 0. -1.
</event>
<event>
 5   1  0.7748900E+01  0.8040000E+02  0.7957747E-01  0.1297830E+00
       -1   -1    0    0    0  501  0.00000000000E+00  0.00000000000E+00  0.66015885893E+02  0.66015885893E+02  0.00000000000E+00 0.  1.
        2   -1    0    0  501    0  0.00000000000E+00  0.00000000000E+00 -0.24598930927E+02  0.24598930927E+02  0.00000000000E+00 0. -1.
       24    2    1    2    0    0  0.00000000000E+00  0.00000000000E+00  0.41416954966E+02  0.90614816821E+02  0.80595786917E+02 0.  0.
      -11    1    3    3    0    0 -0.73730933369E+01 -0.23366410533E+02  0.56678884160E+02  0.61748259540E+02  0.00000000000E+00 0.  1.
       12    1    3    3    0    0  0.73730933369E+01  0.23366410533E+02 -0.15261929193E+02  0.28866557281E+02  0.00000000000E+00 0. -1.
</event>
<event>
 5   2  0.7748900E+01  0.8040000E+02  0.7957747E-01  0.1297830E+00
        1   -1    0    0  501    0  0.00000000000E+00  0.00000000000E+00  0.16446183141E+03  0.16446183141E+03  0.00000000000E+00 0. -1.
       -2   -1    0    0    0  501  0.00000000000E+00  0.00000000000E+00 -0.92784610446E+01  0.92784610446E+01  0.00000000000E+00 0.  1.
      -24    2    1    2    0    0  0.00000000000E+00  0.00000000000E+00  0.15518337036E+03  0.17374029245E+03  0.78126888996E+02 0.  0.
       11    1    3    3    0    0 -0.33426492472E+02 -0.20134043763E+02  0.73587212912E+02  0.83293385220E+02  0.00000000000E+00 0. -1.
      -12    1    3    3    0    0  0.33426492472E+02  0.20134043763E+02  0.81596157451E+02  0.90446907233E+02  0.00000000000E+00 0.  1.
</event>
<event>
 5   2  0.7748900E+01  0.8040000E+02  0.7957747E-01  0.1297830E+00
       -2   -1    0    0    0  501  0.00000000000E+00  0.00000000000E+00  0.82796144466E+02  0.82796144466E+02  0.00000000000E+00 0.  1.
        1   -1    0    0  501    0  0.00000000000E+00  0.00000000000E+00 -0.20991858480E+02  0.20991858480E+02  0.00000000000E+00 0. -1.
      -24    2    1    2    0    0  0.00000000000E+00  0.00000000000E+00  0.61804285986E+02  0.10378800295E+03  0.83379732485E+02 0.  0.
       11    1    3    3    0    0 -0.18671527633E+02 -0.28465863399E+02  0.94719642999E+00  0.34056254995E+02  0.00000000000E+00 0. -1.
      -12    1    3    3    0    0  0.18671527633E+02  0.28465863399E+02  0.60857089556E+02  0.69731747952E+02  0.00000000000E+00 0.  1.
</event>
<event>
 5   1  0.7748900E+01  0.8040000E+02  0.7957747E-01  0.1297830E+00
        2   -1    0    0  501    0  0.00000000000E+00  0.00000000000E+00  0.14507825950E+02  0.14507825950E+02  0.00000000000E+00 0. -1.
       -1   -1    0    0    0  501  0.00000000000E+00  0.00000000000E+00 -0.10989263741E+03  0.10989263741E+03  0.00000000000E+00 0.  1.
       24    2    1    2    0    0  0.00000000000E+00  0.00000000000E+00 -0.95384811464E+02  0.12440046336E+03  0.79857454423E+02 0.  0.
      -11    1    3    3    0    0 -0.15279227815E+02 -0.32815073425E+02 -0.21439308541E+02  0.42070509828E+02  0.00000000000E+00 0.  1.
       12    1    3    3    0    0  0.15279227815E+02  0.32815073425E+02 -0.73945502923E+02  0.82329953535E+02  0.00000000000E+00 0. -1.
</event>
<event>
 5   2  0.7748900E+01  0.8040000E+02  0.7957747E-01  0.1297830E+00
       -2   -1    0    0    0  501  0.00000000000E+00  0.00000000000E+00  0.23815101595E+02  0.23815101595E+02  0.00000000000E+00 0.  1.
        1   -1    0    0  501    0  0.00000000000E+00  0.00000000000E+00 -0.72225949519E+02  0.72225949519E+02  0.00000000000E+00 0. -1.
      -24    2    1    2    0    0  0.00000000000E+00  0.00000000000E+00 -0.48410847924E+02  0.96041051115E+02  0.82947412874E+02 0.  0.
       11    1    3    3    0    0 -0.94552434349E+01 -0.29618084122E+02  0.75762803513E+01  0.32000508737E+02  0.00000000000E+00 0. -1.
      -12    1    3    3    0    0  0.94552434349E+01  0.29618084122E+02 -0.55987128276E+02  0.64040542378E+02  0.00000000000E+00 0.  1.
</event>
<event>
 5   1  0.7748900E+01  0.8040000E+02  0.7957747E-01  0.1297830E+00
        2   -1    0    0  501    0  0.00000000000E+00  0.00000000000E+00  0.34774279113E+03  0.34774279113E+03  0.00000000000E+00 0. -1.
       -1   -1    0    0    0  501  0.00000000000E+00  0.00000000000E+00 -0.47085848384E+01  0.47085848384E+01  0.00000000000E+00 0.  1.
       24    2    1    2    0    0  0.00000000000E+00  0.00000000000E+00  0.34303420629E+03  0.35245137597E+03  0.80929016650E+02 0.  0.
      -11    1    3    3    0    0 -0.36423706288E+02 -0.10600316872E+01  0.94891863416E+02  0.10164780268E+03  0.00000000000E+00 0.  1.
       12    1    3    3    0    0  0.36423706288E+02  0.10600316872E+01  0.24814234287E+03  0.25080357329E+03  0.00000000000E+00 0. -1.
</event>
<event>
 5   1  0.7748900E+01  0.8040000E+02  0.7957747E-01  0.1297830E+00
       -1   -1    0    0    0  501  0.00000000000E+00  0.00000000000E+00  0.28655595845E+02  0.28655595845E+02  0.00000000000E+00 0.  1.
        2   -1    0    0  501    0  0.00000000000E+00  0.00000000000E+00 -0.57801864173E+02  0.57801864173E+02  0.00000000000E+00 0. -1.
       24    2    1    2    0    0  0.00000000000E+00  0.00000000000E+00 -0.29146268328E+02  0.86457460018E+02  0.81396482942E+02 0.  0.
      -11    1    3    3    0    0 -0.32487478391E+02 -0.30488386207E+00  0.11462500849E+02  0.34451678219E+02  0.00000000000E+00 0.  1.
       12    1    3    3    0    0  0.32487478391E+02  0.30488386207E+00 -0.40608769178E+02  0.52005781799E+02  0.00000000000E+00 0. -1.
</event>
<event>
 5   1  0.7748900E+01  0.8040000E+02  0.7957747E-01  0.1297830E+00
       -1   -1    0    0    0  501  0.00000000000E+00  0.00000000000E+00  0.18652832683E+02  0.18652832683E+02  0.00000000000E+00 0.  1.
        2   -1    0    0  501    0  0.00000000000E+00  0.00000000000E+00 -0.83004085098E+02  0.83004085098E+02  0.00000000000E+00 0. -1.
       24    2    1    2    0    0  0.00000000000E+00  0.00000000000E+00 -0.64351252415E+02  0.10165691778E+03  0.78695903613E+02 0.  0.
      -11    1    3    3    0    0 -0.19513332204E+02 -0.27059375156E+02 -0.52249377865E+01  0.33768030627E+02  0.00000000000E+00 0.  1.
       12    1    3    3    0    0  0.19513332204E+02  0.27059375156E+02 -0.59126314629E+02  0.67888887155E+02  0.00000000000E+00 0. -1.
</event>
<event>
 5   2  0.7748900E+01  0.8040000E+02  0.7957747E-01  0.1297830E+00
        1   -1    0    0  501    0  0.00000000000E+00  0.00000000000E+00  0.23805522586E+01  0.23805522586E+01  0.00000000000E+00 0. -1.
       -2   -1    0    0    0  501  0.00000000000E+00  0.00000000000E+00 -0.68585056640E+03  0.68585056640E+03  0.00000000000E+00 0.  1.
      -24    2    1    2    0    0  0.00000000000E+00  0.00000000000E+00 -0.68347001414E+03  0.68823111866E+03  0.80813442320E+02 0.  0.
       11    1    3    3    0    0 -0.24946384749E+02  0.76684487255E+01 -0.79027540856E+02  0.83225473455E+02  0.00000000000E+00 0. -1.
      -12    1    3    3    0    0  0.24946384749E+02 -0.76684487255E+01 -0.60444247329E+03  0.60500564521E+03  0.00000000000E+00 0.  1.
</event>
</LesHouchesEvents>
