<LesHouchesEvents version="3.0">                                          
  <header>                                                                
  <MG5ProcCard>                                                           
#************************************************************             
#*                        MadGraph 5                        *             
#*                                                          *             
#*                *                       *                 *             
#*                  *        * *        *                   *             
#*                    * * * * 5 * * * *                     *             
#*                  *        * *        *                   *             
#*                *                       *                 *             
#*                                                          *             
#*                                                          *             
#*         VERSION 2.0.0.beta4           2013-06-22         *             
#*                                                          *             
#*    The MadGraph Development Team - Please visit us at    *             
#*    https://server06.fynu.ucl.ac.be/projects/madgraph     *             
#*                                                          *             
#************************************************************             
#*                                                          *             
#*               Command File for MadGraph 5                *             
#*                                                          *             
#*     run as ./bin/mg5  filename                           *             
#*                                                          *             
#************************************************************             
                                                                          
set group_subprocesses Auto                                               
set ignore_six_quark_processes False                                      
set loop_optimized_output True                                            
set gauge unitary                                                         
set complex_mass_scheme False                                             
import model sm                                                           
define p = g u c d s u~ c~ d~ s~                                          
define j = g u c d s u~ c~ d~ s~                                          
define l+ = e+ mu+                                                        
define l- = e- mu-                                                        
define vl = ve vm vt                                                      
define vl~ = ve~ vm~ vt~                                                  
import model loop_sm-no_b_mass                                            
set complex_mass_scheme True                                              
define p = p b b~                                                         
define j = p                                                              
generate p p > w+ b j $$w+ w- z a QED=3 QCD=0 [QCD]                       
output wbj_prod_1                                                         
  </MG5ProcCard>                                                          
  <slha>                                                                  
######################################################################    
## PARAM_CARD AUTOMATICALY GENERATED BY MG5 FOLLOWING UFO MODEL   ####    
######################################################################    
##                                                                  ##    
##  Width set on Auto will be computed following the information    ##    
##        present in the decay.py files of the model. By default,   ##    
##        this is only 1->2 decay modes.                            ##    
##                                                                  ##    
######################################################################    
                                                                          
###################################                                       
## INFORMATION FOR LOOP                                                   
###################################                                       
Block loop                                                                
    1 8.660000e+01 # MU_R                                                 
                                                                          
###################################                                       
## INFORMATION FOR MASS                                                   
###################################                                       
Block mass                                                                
    6 1.732000e+02 # MT                                                   
   15 1.777000e+00 # MTA                                                  
   23 9.118760e+01 # MZ                                                   
   24 8.039800e+01 # MW                                                   
   25 1.200000e+02 # MH                                                   
## Dependent parameters, given by model restrictions.                     
## Those values should be edited following the                            
## analytical expression. MG5 ignores those values                        
## but they are important for interfacing the output of MG5               
## to external program such as Pythia.                                    
  1 0.000000 # d : 0.0                                                    
  2 0.000000 # u : 0.0                                                    
  3 0.000000 # s : 0.0                                                    
  4 0.000000 # c : 0.0                                                    
  5 0.000000 # b : 0.0                                                    
  11 0.000000 # e- : 0.0                                                  
  12 0.000000 # ve : 0.0                                                  
  13 0.000000 # mu- : 0.0                                                 
  14 0.000000 # vm : 0.0                                                  
  16 0.000000 # vt : 0.0                                                  
  21 0.000000 # g : 0.0                                                   
  22 0.000000 # a : 0.0                                                   
  82 0.000000 # gh : 0.0                                                  
                                                                          
###################################                                       
## INFORMATION FOR SMINPUTS                                               
###################################                                       
Block sminputs                                                            
    1 1.323384e+02 # aEWM1                                                
    3 1.180000e-01 # aS                                                   
                                                                          
###################################                                       
## INFORMATION FOR DECAY                                                  
###################################                                       
DECAY   6 1.501700e+00 # WT Gamma_t_LO                                    
#DECAY   6 1.356900e+00 # WT Gamma_t_NLO(mu=mt/2)                         
DECAY  23 2.495200e+00 # WZ                                               
DECAY  24 0.000000e+00 # WW                                               
DECAY  25 5.753088e-03 # WH                                               
## Dependent parameters, given by model restrictions.                     
## Those values should be edited following the                            
## analytical expression. MG5 ignores those values                        
## but they are important for interfacing the output of MG5               
## to external program such as Pythia.                                    
DECAY  1 0.000000 # d : 0.0                                               
DECAY  2 0.000000 # u : 0.0                                               
DECAY  3 0.000000 # s : 0.0                                               
DECAY  4 0.000000 # c : 0.0                                               
DECAY  5 0.000000 # b : 0.0                                               
DECAY  11 0.000000 # e- : 0.0                                             
DECAY  12 0.000000 # ve : 0.0                                             
DECAY  13 0.000000 # mu- : 0.0                                            
DECAY  14 0.000000 # vm : 0.0                                             
DECAY  15 0.000000 # ta- : 0.0                                            
DECAY  16 0.000000 # vt : 0.0                                             
DECAY  21 0.000000 # g : 0.0                                              
DECAY  22 0.000000 # a : 0.0                                              
DECAY  82 0.000000 # gh : 0.0                                             
#===========================================================              
# QUANTUM NUMBERS OF NEW STATE(S) (NON SM PDG CODE)                       
#===========================================================              
                                                                          
Block QNUMBERS 82  # gh                                                   
        1 0  # 3 times electric charge                                    
        2 1  # number of spin states (2S+1)                               
        3 8  # colour rep (1: singlet, 3: triplet, 8: octet)              
        4 1  # Particle/Antiparticle distinction (0=own anti)             
  </slha>                                                                 
  <MGRunCard>                                                             
#***********************************************************************  
#                       MadGraph/MadEvent                              *  
#                  http://madgraph.hep.uiuc.edu                        *  
#                                                                      *  
#                        run_card.dat                                  *  
#                                                                      *  
#  This file is used to set the parameters of the run.                 *  
#                                                                      *  
#  Some notation/conventions:                                          *  
#                                                                      *  
#   Lines starting with a hash (#) are info or comments                *  
#                                                                      *  
#   mind the format:   value    = variable     ! comment               *  
#***********************************************************************  
#                                                                         
#*******************                                                      
# Running parameters                                                      
#*******************                                                      
#                                                                         
#***********************************************************************  
# Tag name for the run (one word)                                      *  
#***********************************************************************  
  tag_1     = run_tag ! name of the run                                   
#***********************************************************************  
# Number of events (and their normalization) and the required          *  
# (relative) accuracy on the Xsec.                                     *  
# These values are ignored for fixed order runs                        *  
#***********************************************************************  
     1000000  = nevents    ! Number of unweighted events requested
    1000000 = nevents                                                     
#    -1 = req_acc ! Required accuracy (-1=auto determined from nevents)   
    -1 = nevt_job! Max number of events per job in event generation.      
                 !  (-1= no split).                                       
average = event_norm ! Normalize events to sum or average to the X sect.  
#***********************************************************************  
# Number of points per itegration channel (ignored for aMC@NLO runs)   *  
#***********************************************************************  
 100000   = npoints_FO_grid  ! number of points to set-up int. grids      
 5      = niters_FO_grid   ! number of iterations to set-up int. grids    
 500000   = npoints_FO_virt  ! number of points to compute Xsec (virt)    
 10      = niters_FO_virt   ! number of iter. to compute Xsec (virt)      
 1000000  = npoints_FO       ! number of points to compute Xsec (no virt  
 10      = niters_FO        ! number of iter. to compute Xsec (no virt)   
#***********************************************************************  
# Random number seed                                                   *  
#***********************************************************************  
         44 =  iseed                                                      
#***********************************************************************  
# Collider type and energy                                             *  
#***********************************************************************  
    1   = lpp1    ! beam 1 type (0 = no PDF)                              
    1   = lpp2    ! beam 2 type (0 = no PDF)                              
 4000   = ebeam1  ! beam 1 energy in GeV                                  
 4000   = ebeam2  ! beam 2 energy in GeV                                  
#***********************************************************************  
# PDF choice: this automatically fixes also alpha_s(MZ) and its evol.  *  
#***********************************************************************  
  lhapdf   = pdlabel   ! PDF set                                          
  21100    = lhaid     ! if pdlabel=lhapdf, this is the lhapdf number     
#***********************************************************************  
# Include the NLO Monte Carlo subtr. terms for the following parton    *  
# shower (HERWIG6 | HERWIGPP | PYTHIA6Q | PYTHIA6PT | PYTHIA8)         *  
# WARNING: PYTHIA6PT works only for processes without FSR!!!!          *  
#***********************************************************************  
#  HERWIG6   = parton_shower                                              
  PYTHIA8 = parton_shower                                                 
#***********************************************************************  
# Renormalization and factorization scales                             *  
# (Default functional form for the non-fixed scales is the sum of      *  
# the transverse masses of all final state particles and partons. This *  
# can be changed in SubProcesses/set_scales.f)                         *  
#***********************************************************************  
 T        = fixed_ren_scale  ! if .true. use fixed ren scale              
 T        = fixed_fac_scale  ! if .true. use fixed fac scale              
 86.600   = muR_ref_fixed    ! fixed ren reference scale                  
 86.600   = muF1_ref_fixed   ! fixed fact reference scale for pdf1        
 86.600   = muF2_ref_fixed   ! fixed fact reference scale for pdf2        
#***********************************************************************  
# Renormalization and factorization scales (advanced and NLO options)  *  
#***********************************************************************  
 T        = fixed_QES_scale  ! if .true. use fixed Ellis-Sexton scale     
 86.600   = QES_ref_fixed    ! fixed Ellis-Sexton reference scale         
 1        = muR_over_ref     ! ratio of current muR over reference muR    
 1        = muF1_over_ref    ! ratio of current muF1 over reference muF1  
 1        = muF2_over_ref    ! ratio of current muF2 over reference muF2  
 1        = QES_over_ref     ! ratio of current QES over reference QES    
#***********************************************************************  
# Reweight flags to get scale dependence and PDF uncertainty           *  
# For scale dependence: factor rw_scale_up/down around central scale   *  
# For PDF uncertainty: use LHAPDF with supported set                   *  
#***********************************************************************  
 .true.   = reweight_scale   ! reweight to get scale dependence           
  0.5     = rw_Rscale_down   ! lower bound for ren scale variations       
  2.0     = rw_Rscale_up     ! upper bound for ren scale variations       
  0.5     = rw_Fscale_down   ! lower bound for fact scale variations      
  2.0     = rw_Fscale_up     ! upper bound for fact scale variations      
 .false.  = reweight_PDF     ! reweight to get PDF uncertainty            
  21101   = PDF_set_min      ! First of the error PDF sets                
  21140   = PDF_set_max      ! Last of the error PDF sets                 
#***********************************************************************  
# Merging - WARNING! Applies merging only at the hard-event level.     *  
# After showering an MLM-type merging should be applied as well.       *  
# See http://amcatnlo.cern.ch/FxFx_merging.htm for more details.       *  
#***********************************************************************  
 0        = ickkw            ! 0 no merging, 3 FxFx merging               
#***********************************************************************  
#                                                                         
#***********************************************************************  
# BW cutoff (M+/-bwcutoff*Gamma)                                       *  
#***********************************************************************  
 35  = bwcutoff                                                           
#***********************************************************************  
# Cuts on the jets                                                     *  
# When matching to a parton shower, these generation cuts should be    *  
# considerably softer than the analysis cuts.                          *  
# (more specific cuts can be specified in SubProcesses/cuts.f)         *  
#***********************************************************************  
   1  = jetalgo   ! FastJet jet algorithm (1=kT, 0=C/A, -1=anti-kT)       
 0.4  = jetradius ! The radius parameter for the jet algorithm            
   4  = ptj       ! Min jet transverse momentum                           
  -1  = etaj      ! Max jet abs(pseudo-rap) (a value .lt.0 means no cut)  
#***********************************************************************  
# Cuts on the charged leptons (e+, e-, mu+, mu-, tau+ and tau-)        *  
# (more specific gen cuts can be specified in SubProcesses/cuts.f)     *  
#***********************************************************************  
   0  = ptl   ! Min lepton transverse momentum                            
  -1  = etal  ! Max lepton abs(pseudo-rap) (a value .lt.0 means no cut)   
   0  = drll  ! Min distance between opposite sign lepton pairs           
  10  = mll   ! Min inv. mass of all oppositely charged lepton pairs      
#***********************************************************************  
# Photon-isolation cuts, according to hep-ph/9801442                   *  
# When ptgmin=0, all the other parameters are ignored                  *  
#***********************************************************************  
  20  = ptgmin    ! Min photon transverse momentum                        
  -1  = etagamma  ! Max photon abs(pseudo-rap)                            
 0.4  = R0gamma   ! Radius of isolation code                              
 1.0  = xn        ! n parameter of eq.(3.4) in hep-ph/9801442             
 1.0  = epsgamma  ! epsilon_gamma parameter of eq.(3.4) in hep-ph/980144  
 .true.  = isoEM  ! isolate photons from EM energy (photons and leptons)  
#***********************************************************************  
# maximal pdg code for quark to be considered as a jet                 *  
#***********************************************************************  
 5 = maxjetflavor                                                         
#***********************************************************************  
  </MGRunCard>                                                            
  <MonteCarloMasses>                                                      
       1   0.330000E+00                                                   
       2   0.330000E+00                                                   
       3   0.500000E+00                                                   
       4   0.150000E+01                                                   
       5   0.480000E+01                                                   
      21   0.000000E+00                                                   
  </MonteCarloMasses>                                                     
  <initrwgt>                                                              
    <weightgroup type="scale_variation" combine="envelope">               
      <weight id="1001"> muR=0.10000E+01 muF=0.10000E+01 </weight>        
      <weight id="1002"> muR=0.10000E+01 muF=0.20000E+01 </weight>        
      <weight id="1003"> muR=0.10000E+01 muF=0.50000E+00 </weight>        
      <weight id="1004"> muR=0.20000E+01 muF=0.10000E+01 </weight>        
      <weight id="1005"> muR=0.20000E+01 muF=0.20000E+01 </weight>        
      <weight id="1006"> muR=0.20000E+01 muF=0.50000E+00 </weight>        
      <weight id="1007"> muR=0.50000E+00 muF=0.10000E+01 </weight>        
      <weight id="1008"> muR=0.50000E+00 muF=0.20000E+01 </weight>        
      <weight id="1009"> muR=0.50000E+00 muF=0.50000E+00 </weight>        
    </weightgroup>                                                        
  </initrwgt>                                                             
  </header>                                                               
  <init>
   2212   2212 0.40000000E+04 0.40000000E+04 -1 -1  21100  21100 -4   1
 0.50109086E+02 0.89185414E-01 0.50109093E+02     66
<generator name="SomeGen1" version="1.2.3"> some additional comments </generator>
<generator name="SomeGen2" version="a.x.3"> some other comments </generator>
<generator name="SomeGen3" version="+.#.@"> more comments </generator>
  </init>
  <event npLO=" -1 " npNLO=" 1 ">
  5     66 0.50109093E+02 0.14137688E+03 0.75563862E-02 0.12114027E+00
        5 -1    0    0  501    0 0.00000000E+00 0.00000000E+00 0.14322906E+03 0.14330946E+03 0.48000000E+01 0.0000E+00 0.0000E+00
        2 -1    0    0  502    0 0.00000000E+00 0.00000000E+00 -.93544317E+03 0.93544323E+03 0.33000000E+00 0.0000E+00 0.0000E+00
       24  1    1    2    0    0 -.84258804E+02 -.15708566E+03 -.10629600E+03 0.22257162E+03 0.80398000E+02 0.0000E+00 0.0000E+00
        5  1    1    2  501    0 -.13668073E+03 -.36307424E+02 -.40614473E+02 0.14721558E+03 0.48000000E+01 0.0000E+00 0.0000E+00
        1  1    1    2  502    0 0.22093954E+03 0.19339308E+03 -.64530364E+03 0.70896548E+03 0.33000000E+00 0.0000E+00 0.0000E+00
#aMCatNLO 1  6  2  0  0 0.00000000E+00 0.00000000E+00 9  0  0 0.10000000E+01 0.91292678E+00 0.10493312E+01 0.00000000E+00 0.00000000E+00
#aMCatNLO 1  6  2  0  0 0.00000000E+00 0.00000000E+00 9  0  0 0.10000000E+01 0.91292678E+00 0.10493312E+01 0.00000000E+00 0.00000000E+00
#aMCatNLO 1  6  2  0  0 0.00000000E+00 0.00000000E+00 9  0  0 0.10000000E+01 0.91292678E+00 0.10493312E+01 0.00000000E+00 0.00000000E+00
#aMCatNLO 1  6  2  0  0 0.00000000E+00 0.00000000E+00 9  0  0 0.10000000E+01 0.91292678E+00 0.10493312E+01 0.00000000E+00 0.00000000E+00
#aMCatNLO 1  6  2  0  0 0.00000000E+00 0.00000000E+00 9  0  0 0.10000000E+01 0.91292678E+00 0.10493312E+01 0.00000000E+00 0.00000000E+00
  <rwgt>
   <wgt id="1001"> 0.50109E+02 </wgt>
   <wgt id="1002"> 0.45746E+02 </wgt>
   <wgt id="1003"> 0.52581E+02 </wgt>
   <wgt id="1004"> 0.50109E+02 </wgt>
   <wgt id="1005"> 0.45746E+02 </wgt>
   <wgt id="1006"> 0.52581E+02 </wgt>
   <wgt id="1007"> 0.50109E+02 </wgt>
   <wgt id="1008"> 0.45746E+02 </wgt>
   <wgt id="1009"> 0.52581E+02 </wgt>
  </rwgt>
  <weights> 1.000e+00 0.204e+00 1.564e+00 </weights>
  <scales muf="90.1" mur="90.2" mups="90.3" newscale="90.4"> random stuff </scales>
  </event>
  <event npLO=" 2 " npNLO=" 3 ">
  5     66 0.50109093E+02 0.49115073E+02 0.75563862E-02 0.12114027E+00
        5 -1    0    0  501    0 0.00000000E+00 0.00000000E+00 0.26554406E+02 0.26984745E+02 0.48000000E+01 0.0000E+00 0.0000E+00
        2 -1    0    0  502    0 -.00000000E+00 -.00000000E+00 -.49281796E+03 0.49281807E+03 0.33000000E+00 0.0000E+00 0.0000E+00
       24  1    1    2    0    0 -.73930583E+02 0.35896306E+02 -.18474232E+03 0.21759559E+03 0.80398000E+02 0.0000E+00 0.0000E+00
        5  1    1    2  501    0 0.28031737E+02 -.53368468E+02 -.14417361E+03 0.15634271E+03 0.48000000E+01 0.0000E+00 0.0000E+00
        1  1    1    2  502    0 0.45898846E+02 0.17472162E+02 -.13734762E+03 0.14586452E+03 0.33000000E+00 0.0000E+00 0.0000E+00
#aMCatNLO 1  6  5  0  0 0.00000000E+00 0.00000000E+00 9  0  0 0.99999998E+00 0.84231243E+00 0.11262380E+01 0.00000000E+00 0.00000000E+00
#aMCatNLO 1  6  2  0  0 0.00000000E+00 0.00000000E+00 9  0  0 0.10000000E+01 0.91292678E+00 0.10493312E+01 0.00000000E+00 0.00000000E+00
#aMCatNLO 1  6  2  0  0 0.00000000E+00 0.00000000E+00 9  0  0 0.10000000E+01 0.91292678E+00 0.10493312E+01 0.00000000E+00 0.00000000E+00
#aMCatNLO 1  6  2  0  0 0.00000000E+00 0.00000000E+00 9  0  0 0.10000000E+01 0.91292678E+00 0.10493312E+01 0.00000000E+00 0.00000000E+00
  <rwgt>
   <wgt id="1001"> 0.50109E+02 </wgt>
   <wgt id="1002"> 0.42208E+02 </wgt>
   <wgt id="1003"> 0.56435E+02 </wgt>
   <wgt id="1004"> 0.50109E+02 </wgt>
   <wgt id="1005"> 0.42208E+02 </wgt>
   <wgt id="1006"> 0.56435E+02 </wgt>
   <wgt id="1007"> 0.50109E+02 </wgt>
   <wgt id="1008"> 0.42208E+02 </wgt>
   <wgt id="1009"> 0.56435E+02 </wgt>
  </rwgt>
  </event>
  <event>
  6     66 0.50109093E+02 0.88344569E+02 0.75563862E-02 0.12114027E+00
        2 -1    0    0  502    0 0.00000000E+00 0.00000000E+00 0.62728157E+03 0.62728166E+03 0.33000000E+00 0.0000E+00 0.0000E+00
        5 -1    0    0  501    0 0.00000000E+00 0.00000000E+00 -.44481443E+02 0.44739678E+02 0.48000000E+01 0.0000E+00 0.0000E+00
        6  2    1    2  501    0 -.59350665E+02 0.72244533E+02 0.21037840E+03 0.28804239E+03 0.17311146E+03 0.0000E+00 0.0000E+00
       24  1    3    3    0    0 0.28747403E+02 0.66692858E+02 0.11544955E+03 0.15832494E+03 0.80398000E+02 0.0000E+00 0.0000E+00
        5  1    3    3  501    0 -.88098069E+02 0.55516749E+01 0.94928843E+02 0.12971745E+03 0.48000000E+01 0.0000E+00 0.0000E+00
        1  1    1    2  502    0 0.59350665E+02 -.72244533E+02 0.37242173E+03 0.38397894E+03 0.33000000E+00 0.0000E+00 0.0000E+00
#aMCatNLO 1  6  2  0  0 0.00000000E+00 0.00000000E+00 9  0  0 0.10000000E+01 0.86321681E+00 0.11022720E+01 0.00000000E+00 0.00000000E+00
#aMCatNLO 1  6  2  0  0 0.00000000E+00 0.00000000E+00 9  0  0 0.10000000E+01 0.91292678E+00 0.10493312E+01 0.00000000E+00 0.00000000E+00
#aMCatNLO 1  6  2  0  0 0.00000000E+00 0.00000000E+00 9  0  0 0.10000000E+01 0.91292678E+00 0.10493312E+01 0.00000000E+00 0.00000000E+00
#aMCatNLO 1  6  2  0  0 0.00000000E+00 0.00000000E+00 9  0  0 0.10000000E+01 0.91292678E+00 0.10493312E+01 0.00000000E+00 0.00000000E+00
  <rwgt>
   <wgt id="1001"> 0.50109E+02 </wgt>
   <wgt id="1002"> 0.43255E+02 </wgt>
   <wgt id="1003"> 0.55234E+02 </wgt>
   <wgt id="1004"> 0.50109E+02 </wgt>
   <wgt id="1005"> 0.43255E+02 </wgt>
   <wgt id="1006"> 0.55234E+02 </wgt>
   <wgt id="1007"> 0.50109E+02 </wgt>
   <wgt id="1008"> 0.43255E+02 </wgt>
   <wgt id="1009"> 0.55234E+02 </wgt>
  </rwgt>
  </event>
  <event>
  5     66 0.50109093E+02 0.34743976E+02 0.75563862E-02 0.12114027E+00
        2 -1    0    0  502    0 0.00000000E+00 0.00000000E+00 0.18567734E+03 0.18567764E+03 0.33000000E+00 0.0000E+00 0.0000E+00
        5 -1    0    0  501    0 0.00000000E+00 0.00000000E+00 -.92971073E+02 0.93094900E+02 0.48000000E+01 0.0000E+00 0.0000E+00
       24  1    1    2    0    0 -.16509882E+02 -.44173668E+02 -.34549421E+02 0.99405181E+02 0.80398000E+02 0.0000E+00 0.0000E+00
        5  1    1    2  501    0 -.48151734E+01 0.71601920E+02 0.33426663E+02 0.79312058E+02 0.48000000E+01 0.0000E+00 0.0000E+00
        1  1    1    2  502    0 0.21325056E+02 -.27428251E+02 0.93829028E+02 0.10005530E+03 0.33000000E+00 0.0000E+00 0.0000E+00
# 10 20 30
#aMCatNLO 1  6  2  0  0 0.00000000E+00 0.00000000E+00 9  0  0 0.10000000E+01 0.84242974E+00 0.11260412E+01 0.00000000E+00 0.00000000E+00
#aMCatNLO 1  6  2  0  0 0.00000000E+00 0.00000000E+00 9  0  0 0.10000000E+01 0.91292678E+00 0.10493312E+01 0.00000000E+00 0.00000000E+00
#aMCatNLO 1  6  2  0  0 0.00000000E+00 0.00000000E+00 9  0  0 0.10000000E+01 0.91292678E+00 0.10493312E+01 0.00000000E+00 0.00000000E+00
#aMCatNLO 1  6  2  0  0 0.00000000E+00 0.00000000E+00 9  0  0 0.10000000E+01 0.91292678E+00 0.10493312E+01 0.00000000E+00 0.00000000E+00
  <rwgt>
   <wgt id="1001"> 0.50109E+02 </wgt>
   <wgt id="1002"> 0.42213E+02 </wgt>
   <wgt id="1003"> 0.56425E+02 </wgt>
   <wgt id="1004"> 0.50109E+02 </wgt>
   <wgt id="1005"> 0.42213E+02 </wgt>
   <wgt id="1006"> 0.56425E+02 </wgt>
   <wgt id="1007"> 0.50109E+02 </wgt>
   <wgt id="1008"> 0.42213E+02 </wgt>
   <wgt id="1009"> 0.56425E+02 </wgt>
  </rwgt>
  </event>
  <event>
  6     66 0.50109093E+02 0.73602197E+02 0.75563862E-02 0.12114027E+00
        2 -1    0    0  502    0 0.00000000E+00 0.00000000E+00 0.95601011E+03 0.95601017E+03 0.33000000E+00 0.0000E+00 0.0000E+00
        5 -1    0    0  501    0 0.00000000E+00 0.00000000E+00 -.97243818E+02 0.97362211E+02 0.48000000E+01 0.0000E+00 0.0000E+00
        6  2    1    2  501    0 -.72396164E+02 0.13269186E+02 -.37571868E+01 0.18771417E+03 0.17264187E+03 0.0000E+00 0.0000E+00
       24  1    3    3    0    0 -.88190577E+01 -.51437086E+02 0.76726320E+01 0.96157461E+02 0.80398000E+02 0.0000E+00 0.0000E+00
        5  1    3    3  501    0 -.63577107E+02 0.64706271E+02 -.11429819E+02 0.91556708E+02 0.48000000E+01 0.0000E+00 0.0000E+00
        1  1    1    2  502    0 0.72396164E+02 -.13269186E+02 0.86252348E+03 0.86565821E+03 0.33000000E+00 0.0000E+00 0.0000E+00
#aMCatNLO 1  6  5  0  0 0.00000000E+00 0.00000000E+00 9  0  0 0.10000000E+01 0.90394162E+00 0.10584568E+01 0.00000000E+00 0.00000000E+00
# 10 20 30
  <rwgt>
   <wgt id="1001"> 0.50109E+02 </wgt>
   <wgt id="1002"> 0.45296E+02 </wgt>
   <wgt id="1003"> 0.53038E+02 </wgt>
   <wgt id="1004"> 0.50109E+02 </wgt>
   <wgt id="1005"> 0.45296E+02 </wgt>
   <wgt id="1006"> 0.53038E+02 </wgt>
   <wgt id="1007"> 0.50109E+02 </wgt>
   <wgt id="1008"> 0.45296E+02 </wgt>
   <wgt id="1009"> 0.53038E+02 </wgt>
  </rwgt>
  </event>
  <event>
  6     66 0.50109093E+02 0.60182513E+02 0.75563862E-02 0.12114027E+00
        5 -1    0    0  501    0 0.00000000E+00 0.00000000E+00 0.66617402E+02 0.66790105E+02 0.48000000E+01 0.0000E+00 0.0000E+00
        2 -1    0    0  502    0 0.00000000E+00 0.00000000E+00 -.99095463E+03 0.99095468E+03 0.33000000E+00 0.0000E+00 0.0000E+00
        6  2    1    2  501    0 0.59727174E+02 0.73887482E+01 -.63234402E+02 0.19454139E+03 0.17385578E+03 0.0000E+00 0.0000E+00
       24  1    3    3    0    0 -.15067643E+02 -.17042659E+01 0.17860810E+02 0.83742375E+02 0.80398000E+02 0.0000E+00 0.0000E+00
        5  1    3    3  501    0 0.74794817E+02 0.90930142E+01 -.81095213E+02 0.11079901E+03 0.48000000E+01 0.0000E+00 0.0000E+00
        1  1    1    2  502    0 -.59727174E+02 -.73887482E+01 -.86110283E+03 0.86320340E+03 0.33000000E+00 0.0000E+00 0.0000E+00
#aMCatNLO 1  6  2  0  0 0.00000000E+00 0.00000000E+00 9  0  0 0.10000000E+01 0.89647341E+00 0.10661591E+01 0.00000000E+00 0.00000000E+00
  <rwgt>
   <wgt id="1001"> 0.50109E+02 </wgt>
   <wgt id="1002"> 0.44921E+02 </wgt>
   <wgt id="1003"> 0.53424E+02 </wgt>
   <wgt id="1004"> 0.50109E+02 </wgt>
   <wgt id="1005"> 0.44921E+02 </wgt>
   <wgt id="1006"> 0.53424E+02 </wgt>
   <wgt id="1007"> 0.50109E+02 </wgt>
   <wgt id="1008"> 0.44921E+02 </wgt>
   <wgt id="1009"> 0.53424E+02 </wgt>
  </rwgt>
  </event>
  <event>
  6     66 0.50109093E+02 0.33622172E+02 0.75563862E-02 0.12114027E+00
        5 -1    0    0  501    0 0.00000000E+00 0.00000000E+00 0.19832768E+03 0.19838576E+03 0.48000000E+01 0.0000E+00 0.0000E+00
        2 -1    0    0  502    0 0.00000000E+00 0.00000000E+00 -.61551686E+02 0.61552571E+02 0.33000000E+00 0.0000E+00 0.0000E+00
        6  2    1    2  501    0 -.14477532E+02 -.30344093E+02 0.14186804E+03 0.22593244E+03 0.17259364E+03 0.0000E+00 0.0000E+00
       24  1    3    3    0    0 0.34117283E+02 0.21435578E+02 0.32856846E+02 0.95743844E+02 0.80398000E+02 0.0000E+00 0.0000E+00
        5  1    3    3  501    0 -.48594815E+02 -.51779671E+02 0.10901119E+03 0.13018859E+03 0.48000000E+01 0.0000E+00 0.0000E+00
        1  1    1    2  502    0 0.14477532E+02 0.30344093E+02 -.50920405E+01 0.34005892E+02 0.33000000E+00 0.0000E+00 0.0000E+00
#aMCatNLO 1  6  2  0  0 0.00000000E+00 0.00000000E+00 9  0  0 0.99999999E+00 0.83411743E+00 0.11348802E+01 0.00000000E+00 0.00000000E+00
  <rwgt>
   <wgt id="1001"> 0.50109E+02 </wgt>
   <wgt id="1002"> 0.41797E+02 </wgt>
   <wgt id="1003"> 0.56868E+02 </wgt>
   <wgt id="1004"> 0.50109E+02 </wgt>
   <wgt id="1005"> 0.41797E+02 </wgt>
   <wgt id="1006"> 0.56868E+02 </wgt>
   <wgt id="1007"> 0.50109E+02 </wgt>
   <wgt id="1008"> 0.41797E+02 </wgt>
   <wgt id="1009"> 0.56868E+02 </wgt>
  </rwgt>
  </event>
  <event>
  6     66 0.50109093E+02 0.53465521E+01 0.75563862E-02 0.12114027E+00
        2 -1    0    0  502    0 0.00000000E+00 0.00000000E+00 0.89356872E+03 0.89356879E+03 0.33000000E+00 0.0000E+00 0.0000E+00
        5 -1    0    0  501    0 0.00000000E+00 0.00000000E+00 -.24339208E+02 0.24808003E+02 0.48000000E+01 0.0000E+00 0.0000E+00
        6  2    1    2  501    0 0.44741491E+01 -.29269945E+01 0.28255222E+03 0.33167504E+03 0.17362024E+03 0.0000E+00 0.0000E+00
       24  1    3    3    0    0 -.36515128E+02 0.22256614E+02 0.73268081E+02 0.11687926E+03 0.80398000E+02 0.0000E+00 0.0000E+00
        5  1    3    3  501    0 0.40989277E+02 -.25183609E+02 0.20928414E+03 0.21479578E+03 0.48000000E+01 0.0000E+00 0.0000E+00
        1  1    1    2  502    0 -.44741491E+01 0.29269945E+01 0.58667730E+03 0.58670175E+03 0.33000000E+00 0.0000E+00 0.0000E+00
#aMCatNLO 1  6  5  0  0 0.00000000E+00 0.00000000E+00 9  0  0 0.10000000E+01 0.86696618E+00 0.10978460E+01 0.00000000E+00 0.00000000E+00
  <rwgt>
   <wgt id="1001"> 0.50109E+02 </wgt>
   <wgt id="1002"> 0.43443E+02 </wgt>
   <wgt id="1003"> 0.55012E+02 </wgt>
   <wgt id="1004"> 0.50109E+02 </wgt>
   <wgt id="1005"> 0.43443E+02 </wgt>
   <wgt id="1006"> 0.55012E+02 </wgt>
   <wgt id="1007"> 0.50109E+02 </wgt>
   <wgt id="1008"> 0.43443E+02 </wgt>
   <wgt id="1009"> 0.55012E+02 </wgt>
  </rwgt>
  </event>
  <event>
  6     66 0.50109093E+02 0.43334224E+02 0.75563862E-02 0.12114027E+00
        2 -1    0    0  502    0 0.00000000E+00 0.00000000E+00 0.85052166E+03 0.85052172E+03 0.33000000E+00 0.0000E+00 0.0000E+00
        5 -1    0    0  501    0 0.00000000E+00 0.00000000E+00 -.22465616E+02 0.22972678E+02 0.48000000E+01 0.0000E+00 0.0000E+00
        6  2    1    2  501    0 -.54473094E+02 -.27322554E+02 0.39032295E+03 0.43153941E+03 0.17366756E+03 0.0000E+00 0.0000E+00
       24  1    3    3    0    0 -.42757476E+02 0.14371711E+02 0.92672585E+02 0.13071647E+03 0.80398000E+02 0.0000E+00 0.0000E+00
        5  1    3    3  501    0 -.11715618E+02 -.41694265E+02 0.29765036E+03 0.30082295E+03 0.48000000E+01 0.0000E+00 0.0000E+00
        1  1    1    2  502    0 0.54473094E+02 0.27322554E+02 0.43773309E+03 0.44195499E+03 0.33000000E+00 0.0000E+00 0.0000E+00
#aMCatNLO 1  6  2  0  0 0.00000000E+00 0.00000000E+00 9  0  0 0.99999990E+00 0.86258598E+00 0.11027773E+01 0.00000000E+00 0.00000000E+00
  <rwgt>
   <wgt id="1001"> 0.50109E+02 </wgt>
   <wgt id="1002"> 0.43223E+02 </wgt>
   <wgt id="1003"> 0.55259E+02 </wgt>
   <wgt id="1004"> 0.50109E+02 </wgt>
   <wgt id="1005"> 0.43223E+02 </wgt>
   <wgt id="1006"> 0.55259E+02 </wgt>
   <wgt id="1007"> 0.50109E+02 </wgt>
   <wgt id="1008"> 0.43223E+02 </wgt>
   <wgt id="1009"> 0.55259E+02 </wgt>
  </rwgt>
  </event>
  <event>
  5     66 0.50109093E+02 0.45110733E+02 0.75563862E-02 0.12114027E+00
        5 -1    0    0  502    0 0.00000000E+00 0.00000000E+00 0.19009328E+03 0.19015387E+03 0.48000000E+01 0.0000E+00 0.0000E+00
       -1 -1    0    0    0  501 0.00000000E+00 0.00000000E+00 -.13091175E+03 0.13091217E+03 0.33000000E+00 0.0000E+00 0.0000E+00
       24  1    1    2    0    0 -.97577377E+01 -.45267352E+02 0.46677792E+02 0.10386049E+03 0.80398000E+02 0.0000E+00 0.0000E+00
        5  1    1    2  502    0 0.53211517E+02 0.57379553E+02 0.95003835E+02 0.12317730E+03 0.48000000E+01 0.0000E+00 0.0000E+00
       -2  1    1    2    0  501 -.43453779E+02 -.12112201E+02 -.82500097E+02 0.94028247E+02 0.33000000E+00 0.0000E+00 0.0000E+00
#aMCatNLO 1  6  2  0  0 0.00000000E+00 0.00000000E+00 9  0  0 0.10000000E+01 0.85390250E+00 0.11111471E+01 0.00000000E+00 0.00000000E+00
  <rwgt>
   <wgt id="1001"> 0.50109E+02 </wgt>
   <wgt id="1002"> 0.42788E+02 </wgt>
   <wgt id="1003"> 0.55679E+02 </wgt>
   <wgt id="1004"> 0.50109E+02 </wgt>
   <wgt id="1005"> 0.42788E+02 </wgt>
   <wgt id="1006"> 0.55679E+02 </wgt>
   <wgt id="1007"> 0.50109E+02 </wgt>
   <wgt id="1008"> 0.42788E+02 </wgt>
   <wgt id="1009"> 0.55679E+02 </wgt>
  </rwgt>
  </event>
  <event>
  6     66 0.50109093E+02 0.29679491E+02 0.75563862E-02 0.12114027E+00
        5 -1    0    0  501    0 0.00000000E+00 0.00000000E+00 0.14699137E+03 0.14706972E+03 0.48000000E+01 0.0000E+00 0.0000E+00
        4 -1    0    0  502    0 0.00000000E+00 0.00000000E+00 -.22454609E+03 0.22455110E+03 0.15000000E+01 0.0000E+00 0.0000E+00
        6  2    1    2  501    0 0.26239773E+00 -.29678198E+02 0.92801410E+02 0.19869793E+03 0.17317015E+03 0.0000E+00 0.0000E+00
       24  1    3    3    0    0 -.64041195E+02 -.40022501E+02 0.61255134E+02 0.12617094E+03 0.80398000E+02 0.0000E+00 0.0000E+00
        5  1    3    3  501    0 0.64303593E+02 0.10344303E+02 0.31546276E+02 0.72526990E+02 0.48000000E+01 0.0000E+00 0.0000E+00
        3  1    1    2  502    0 -.26239773E+00 0.29678198E+02 -.17035613E+03 0.17292289E+03 0.50000000E+00 0.0000E+00 0.0000E+00
#aMCatNLO 1  6  2  0  0 0.00000000E+00 0.00000000E+00 9  0  0 0.10000000E+01 0.82036423E+00 0.11437313E+01 0.00000000E+00 0.00000000E+00
  <rwgt>
   <wgt id="1001"> 0.50109E+02 </wgt>
   <wgt id="1002"> 0.41108E+02 </wgt>
   <wgt id="1003"> 0.57312E+02 </wgt>
   <wgt id="1004"> 0.50109E+02 </wgt>
   <wgt id="1005"> 0.41108E+02 </wgt>
   <wgt id="1006"> 0.57312E+02 </wgt>
   <wgt id="1007"> 0.50109E+02 </wgt>
   <wgt id="1008"> 0.41108E+02 </wgt>
   <wgt id="1009"> 0.57312E+02 </wgt>
  </rwgt>
  </event>
  <event>
  5     66 0.50109093E+02 0.43292518E+02 0.75563862E-02 0.12114027E+00
        2 -1    0    0  502    0 0.00000000E+00 0.00000000E+00 0.56611465E+03 0.56611475E+03 0.33000000E+00 0.0000E+00 0.0000E+00
        5 -1    0    0  501    0 0.00000000E+00 0.00000000E+00 -.31969323E+02 0.32327660E+02 0.48000000E+01 0.0000E+00 0.0000E+00
       24  1    1    2    0    0 0.10250206E+03 0.37425209E+02 0.25948903E+03 0.29275538E+03 0.80398000E+02 0.0000E+00 0.0000E+00
        5  1    1    2  501    0 -.36023977E+02 0.23955750E+02 0.96874111E+02 0.10620376E+03 0.48000000E+01 0.0000E+00 0.0000E+00
        1  1    1    2  502    0 -.66478087E+02 -.61380959E+02 0.17778219E+03 0.19948327E+03 0.33000000E+00 0.0000E+00 0.0000E+00
#aMCatNLO 1  6  5  0  0 0.00000000E+00 0.00000000E+00 9  0  0 0.99999998E+00 0.85154036E+00 0.11154930E+01 0.00000000E+00 0.00000000E+00
  <rwgt>
   <wgt id="1001"> 0.50109E+02 </wgt>
   <wgt id="1002"> 0.42670E+02 </wgt>
   <wgt id="1003"> 0.55896E+02 </wgt>
   <wgt id="1004"> 0.50109E+02 </wgt>
   <wgt id="1005"> 0.42670E+02 </wgt>
   <wgt id="1006"> 0.55896E+02 </wgt>
   <wgt id="1007"> 0.50109E+02 </wgt>
   <wgt id="1008"> 0.42670E+02 </wgt>
   <wgt id="1009"> 0.55896E+02 </wgt>
  </rwgt>
  </event>
  <event>
  6     66 0.50109093E+02 0.24451466E+02 0.75563862E-02 0.12114027E+00
        2 -1    0    0  502    0 0.00000000E+00 0.00000000E+00 0.10602504E+03 0.10602555E+03 0.33000000E+00 0.0000E+00 0.0000E+00
        5 -1    0    0  501    0 0.00000000E+00 0.00000000E+00 -.68493673E+03 0.68495355E+03 0.48000000E+01 0.0000E+00 0.0000E+00
        6  2    1    2  501    0 0.23667586E+02 0.47885911E+02 -.66520348E+03 0.68949217E+03 0.17335101E+03 0.0000E+00 0.0000E+00
       24  1    3    3    0    0 0.39061326E+02 0.66770325E+02 -.25260404E+03 0.27614616E+03 0.80398000E+02 0.0000E+00 0.0000E+00
        5  1    3    3  501    0 -.15393740E+02 -.18884413E+02 -.41259944E+03 0.41334601E+03 0.48000000E+01 0.0000E+00 0.0000E+00
        1  1    1    2  502    0 -.23667586E+02 -.47885911E+02 0.86291786E+02 0.10148693E+03 0.33000000E+00 0.0000E+00 0.0000E+00
#aMCatNLO 1  6  2  0  0 0.00000000E+00 0.00000000E+00 9  0  0 0.10000000E+01 0.89122271E+00 0.10709391E+01 0.00000000E+00 0.00000000E+00
  <rwgt>
   <wgt id="1001"> 0.50109E+02 </wgt>
   <wgt id="1002"> 0.44658E+02 </wgt>
   <wgt id="1003"> 0.53664E+02 </wgt>
   <wgt id="1004"> 0.50109E+02 </wgt>
   <wgt id="1005"> 0.44658E+02 </wgt>
   <wgt id="1006"> 0.53664E+02 </wgt>
   <wgt id="1007"> 0.50109E+02 </wgt>
   <wgt id="1008"> 0.44658E+02 </wgt>
   <wgt id="1009"> 0.53664E+02 </wgt>
  </rwgt>
  </event>
  <event>
  5     66 0.50109093E+02 0.37482770E+02 0.75563862E-02 0.12114027E+00
        5 -1    0    0  501    0 0.00000000E+00 0.00000000E+00 0.64450459E+01 0.80360822E+01 0.48000000E+01 0.0000E+00 0.0000E+00
        2 -1    0    0  502    0 0.00000000E+00 0.00000000E+00 -.15656805E+04 0.15656805E+04 0.33000000E+00 0.0000E+00 0.0000E+00
       24  1    1    2    0    0 0.11930470E+02 0.22453511E+02 -.36019111E+03 0.36992968E+03 0.80398000E+02 0.0000E+00 0.0000E+00
        5  1    1    2  501    0 -.11337771E+02 -.59927850E+02 -.94664656E+03 0.94862144E+03 0.48000000E+01 0.0000E+00 0.0000E+00
        1  1    1    2  502    0 -.59269891E+00 0.37474339E+02 -.25239777E+03 0.25516547E+03 0.33000000E+00 0.0000E+00 0.0000E+00
#aMCatNLO 1  6  2  0  0 0.00000000E+00 0.00000000E+00 9  0  0 0.10000000E+01 0.88012569E+00 0.10831674E+01 0.00000000E+00 0.00000000E+00
  <rwgt>
   <wgt id="1001"> 0.50109E+02 </wgt>
   <wgt id="1002"> 0.44102E+02 </wgt>
   <wgt id="1003"> 0.54277E+02 </wgt>
   <wgt id="1004"> 0.50109E+02 </wgt>
   <wgt id="1005"> 0.44102E+02 </wgt>
   <wgt id="1006"> 0.54277E+02 </wgt>
   <wgt id="1007"> 0.50109E+02 </wgt>
   <wgt id="1008"> 0.44102E+02 </wgt>
   <wgt id="1009"> 0.54277E+02 </wgt>
  </rwgt>
  </event>
  <event>
  5     66 0.50109093E+02 0.10573355E+02 0.75563862E-02 0.12114027E+00
        5 -1    0    0  501    0 0.00000000E+00 0.00000000E+00 0.13748451E+03 0.13756828E+03 0.48000000E+01 0.0000E+00 0.0000E+00
        2 -1    0    0  502    0 -.00000000E+00 -.00000000E+00 -.27844638E+03 0.27844658E+03 0.33000000E+00 0.0000E+00 0.0000E+00
       24  1    1    2    0    0 -.18419291E+02 -.89644543E+01 -.16433566E+02 0.84578556E+02 0.80398000E+02 0.0000E+00 0.0000E+00
        5  1    1    2  501    0 0.21370782E+02 0.19117299E+02 0.10128523E+03 0.10537513E+03 0.48000000E+01 0.0000E+00 0.0000E+00
        1  1    1    2  502    0 -.29514912E+01 -.10152845E+02 -.22581353E+03 0.22606117E+03 0.33000000E+00 0.0000E+00 0.0000E+00
#aMCatNLO 1  6  5  0  0 0.00000000E+00 0.00000000E+00 9  0  0 0.99999999E+00 0.86294167E+00 0.11027455E+01 0.00000000E+00 0.00000000E+00
  <rwgt>
   <wgt id="1001"> 0.50109E+02 </wgt>
   <wgt id="1002"> 0.43242E+02 </wgt>
   <wgt id="1003"> 0.55257E+02 </wgt>
   <wgt id="1004"> 0.50109E+02 </wgt>
   <wgt id="1005"> 0.43242E+02 </wgt>
   <wgt id="1006"> 0.55257E+02 </wgt>
   <wgt id="1007"> 0.50109E+02 </wgt>
   <wgt id="1008"> 0.43242E+02 </wgt>
   <wgt id="1009"> 0.55257E+02 </wgt>
  </rwgt>
  </event>
  <event>
  6     66 0.50109093E+02 0.68108118E+01 0.75563862E-02 0.12114027E+00
        2 -1    0    0  502    0 0.00000000E+00 0.00000000E+00 0.22223790E+04 0.22223791E+04 0.33000000E+00 0.0000E+00 0.0000E+00
        5 -1    0    0  501    0 0.00000000E+00 0.00000000E+00 -.16112370E+02 0.16812153E+02 0.48000000E+01 0.0000E+00 0.0000E+00
        6  2    1    2  501    0 0.46837524E+01 -.49446347E+01 0.44512026E+03 0.47803161E+03 0.17417171E+03 0.0000E+00 0.0000E+00
       24  1    3    3    0    0 0.12545079E+02 0.11803277E+02 0.45068535E+03 0.45812424E+03 0.80398000E+02 0.0000E+00 0.0000E+00
        5  1    3    3  501    0 -.78613264E+01 -.16747912E+02 -.55650907E+01 0.19907366E+02 0.48000000E+01 0.0000E+00 0.0000E+00
        1  1    1    2  502    0 -.46837524E+01 0.49446347E+01 0.17611464E+04 0.17611596E+04 0.33000000E+00 0.0000E+00 0.0000E+00
#aMCatNLO 1  6  2  0  0 0.00000000E+00 0.00000000E+00 9  0  0 0.99999999E+00 0.93543106E+00 0.10261651E+01 0.00000000E+00 0.00000000E+00
  <rwgt>
   <wgt id="1001"> 0.50109E+02 </wgt>
   <wgt id="1002"> 0.46874E+02 </wgt>
   <wgt id="1003"> 0.51420E+02 </wgt>
   <wgt id="1004"> 0.50109E+02 </wgt>
   <wgt id="1005"> 0.46874E+02 </wgt>
   <wgt id="1006"> 0.51420E+02 </wgt>
   <wgt id="1007"> 0.50109E+02 </wgt>
   <wgt id="1008"> 0.46874E+02 </wgt>
   <wgt id="1009"> 0.51420E+02 </wgt>
  </rwgt>
  </event>
  <event>
  5     66 0.50109093E+02 0.29332921E+02 0.75563862E-02 0.12114027E+00
        2 -1    0    0  502    0 0.00000000E+00 0.00000000E+00 0.11004145E+04 0.11004146E+04 0.33000000E+00 0.0000E+00 0.0000E+00
        5 -1    0    0  501    0 0.00000000E+00 0.00000000E+00 -.14932797E+02 0.15685293E+02 0.48000000E+01 0.0000E+00 0.0000E+00
       24  1    1    2    0    0 -.51647057E+02 -.14062353E+02 0.15263074E+03 0.18062433E+03 0.80398000E+02 0.0000E+00 0.0000E+00
        5  1    1    2  501    0 0.33784194E+02 -.92011468E+01 0.32473818E+03 0.32665572E+03 0.48000000E+01 0.0000E+00 0.0000E+00
        1  1    1    2  502    0 0.17862863E+02 0.23263500E+02 0.60811282E+03 0.60881982E+03 0.33000000E+00 0.0000E+00 0.0000E+00
#aMCatNLO 1  6  2  0  0 0.00000000E+00 0.00000000E+00 9  0  0 0.99999998E+00 0.86923396E+00 0.10953151E+01 0.00000000E+00 0.00000000E+00
  <rwgt>
   <wgt id="1001"> 0.50109E+02 </wgt>
   <wgt id="1002"> 0.43557E+02 </wgt>
   <wgt id="1003"> 0.54885E+02 </wgt>
   <wgt id="1004"> 0.50109E+02 </wgt>
   <wgt id="1005"> 0.43557E+02 </wgt>
   <wgt id="1006"> 0.54885E+02 </wgt>
   <wgt id="1007"> 0.50109E+02 </wgt>
   <wgt id="1008"> 0.43557E+02 </wgt>
   <wgt id="1009"> 0.54885E+02 </wgt>
  </rwgt>
  </event>
  <event>
  6     66 0.50109093E+02 0.76741532E+02 0.75563862E-02 0.12114027E+00
        5 -1    0    0  501    0 0.00000000E+00 0.00000000E+00 0.44983874E+02 0.45239241E+02 0.48000000E+01 0.0000E+00 0.0000E+00
        2 -1    0    0  502    0 -.00000000E+00 -.00000000E+00 -.60792792E+03 0.60792801E+03 0.33000000E+00 0.0000E+00 0.0000E+00
        6  2    1    2  501    0 -.76573933E+02 0.50653258E+01 -.17605313E+03 0.25873866E+03 0.17338328E+03 0.0000E+00 0.0000E+00
       24  1    3    3    0    0 -.28206931E+02 0.68759414E+02 -.10164433E+03 0.14939510E+03 0.80398000E+02 0.0000E+00 0.0000E+00
        5  1    3    3  501    0 -.48367002E+02 -.63694088E+02 -.74408794E+02 0.10934355E+03 0.48000000E+01 0.0000E+00 0.0000E+00
        1  1    1    2  502    0 0.76573933E+02 -.50653258E+01 -.38689092E+03 0.39442859E+03 0.33000000E+00 0.0000E+00 0.0000E+00
#aMCatNLO 1  6  5  0  0 0.00000000E+00 0.00000000E+00 9  0  0 0.99999991E+00 0.86214536E+00 0.11034873E+01 0.00000000E+00 0.00000000E+00
  <rwgt>
   <wgt id="1001"> 0.50109E+02 </wgt>
   <wgt id="1002"> 0.43201E+02 </wgt>
   <wgt id="1003"> 0.55295E+02 </wgt>
   <wgt id="1004"> 0.50109E+02 </wgt>
   <wgt id="1005"> 0.43201E+02 </wgt>
   <wgt id="1006"> 0.55295E+02 </wgt>
   <wgt id="1007"> 0.50109E+02 </wgt>
   <wgt id="1008"> 0.43201E+02 </wgt>
   <wgt id="1009"> 0.55295E+02 </wgt>
  </rwgt>
  </event>
  <event>
  6     66 0.50109093E+02 0.41060441E+02 0.75563862E-02 0.12114027E+00
        5 -1    0    0  501    0 0.00000000E+00 0.00000000E+00 0.10929112E+03 0.10939648E+03 0.48000000E+01 0.0000E+00 0.0000E+00
        2 -1    0    0  502    0 -.00000000E+00 -.00000000E+00 -.69280938E+03 0.69280946E+03 0.33000000E+00 0.0000E+00 0.0000E+00
        6  2    1    2  501    0 -.11492039E+03 -.45300298E+02 -.75800726E+01 0.21316967E+03 0.17356566E+03 0.0000E+00 0.0000E+00
       24  1    3    3    0    0 -.77958255E+02 -.27285593E+02 -.72503254E+02 0.13617104E+03 0.80398000E+02 0.0000E+00 0.0000E+00
        5  1    3    3  501    0 -.36962138E+02 -.18014705E+02 0.64923181E+02 0.76998628E+02 0.48000000E+01 0.0000E+00 0.0000E+00
        1  1    1    2  502    0 0.11492039E+03 0.45300298E+02 -.57593818E+03 0.58903626E+03 0.33000000E+00 0.0000E+00 0.0000E+00
#aMCatNLO 1  6  5  0  0 0.00000000E+00 0.00000000E+00 9  0  0 0.10000000E+01 0.88972222E+00 0.10734558E+01 0.00000000E+00 0.00000000E+00
  <rwgt>
   <wgt id="1001"> 0.50109E+02 </wgt>
   <wgt id="1002"> 0.44583E+02 </wgt>
   <wgt id="1003"> 0.53790E+02 </wgt>
   <wgt id="1004"> 0.50109E+02 </wgt>
   <wgt id="1005"> 0.44583E+02 </wgt>
   <wgt id="1006"> 0.53790E+02 </wgt>
   <wgt id="1007"> 0.50109E+02 </wgt>
   <wgt id="1008"> 0.44583E+02 </wgt>
   <wgt id="1009"> 0.53790E+02 </wgt>
  </rwgt>
  </event>
  <event>
  5     66 0.50109093E+02 0.28550360E+02 0.75563862E-02 0.12114027E+00
        5 -1    0    0  501    0 0.00000000E+00 0.00000000E+00 0.51307869E+02 0.51531906E+02 0.48000000E+01 0.0000E+00 0.0000E+00
        2 -1    0    0  502    0 0.00000000E+00 0.00000000E+00 -.42009401E+03 0.42009414E+03 0.33000000E+00 0.0000E+00 0.0000E+00
       24  1    1    2    0    0 0.52658979E+02 -.95205853E+02 -.21558854E+03 0.25451793E+03 0.80398000E+02 0.0000E+00 0.0000E+00
        5  1    1    2  501    0 -.27285526E+02 0.81003790E+01 0.98661593E+01 0.30504052E+02 0.48000000E+01 0.0000E+00 0.0000E+00
        1  1    1    2  502    0 -.25373453E+02 0.87105474E+02 -.16306377E+03 0.18660406E+03 0.33000000E+00 0.0000E+00 0.0000E+00
#aMCatNLO 1  6  2  0  0 0.00000000E+00 0.00000000E+00 9  0  0 0.10000001E+01 0.85140627E+00 0.11157941E+01 0.00000000E+00 0.00000000E+00
  <rwgt>
   <wgt id="1001"> 0.50109E+02 </wgt>
   <wgt id="1002"> 0.42663E+02 </wgt>
   <wgt id="1003"> 0.55911E+02 </wgt>
   <wgt id="1004"> 0.50109E+02 </wgt>
   <wgt id="1005"> 0.42663E+02 </wgt>
   <wgt id="1006"> 0.55911E+02 </wgt>
   <wgt id="1007"> 0.50109E+02 </wgt>
   <wgt id="1008"> 0.42663E+02 </wgt>
   <wgt id="1009"> 0.55911E+02 </wgt>
  </rwgt>
  </event>
  <event>
  5     66 0.50109093E+02 0.13999803E+02 0.75563862E-02 0.12114027E+00
        2 -1    0    0  502    0 0.00000000E+00 0.00000000E+00 0.17552030E+04 0.17552031E+04 0.33000000E+00 0.0000E+00 0.0000E+00
        5 -1    0    0  501    0 0.00000000E+00 0.00000000E+00 -.54806330E+01 0.72854196E+01 0.48000000E+01 0.0000E+00 0.0000E+00
       24  1    1    2    0    0 -.62178852E+02 -.22963553E+02 0.14982878E+04 0.15019067E+04 0.80398000E+02 0.0000E+00 0.0000E+00
        5  1    1    2  501    0 0.32757631E+02 0.19922955E+02 0.13203784E+03 0.13757550E+03 0.48000000E+01 0.0000E+00 0.0000E+00
        1  1    1    2  502    0 0.29421221E+02 0.30405985E+01 0.11939674E+03 0.12300628E+03 0.33000000E+00 0.0000E+00 0.0000E+00
#aMCatNLO 1  6  5  0  0 0.00000000E+00 0.00000000E+00 9  0  0 0.99999992E+00 0.88807951E+00 0.10745215E+01 0.00000000E+00 0.00000000E+00
  <rwgt>
   <wgt id="1001"> 0.50109E+02 </wgt>
   <wgt id="1002"> 0.44501E+02 </wgt>
   <wgt id="1003"> 0.53843E+02 </wgt>
   <wgt id="1004"> 0.50109E+02 </wgt>
   <wgt id="1005"> 0.44501E+02 </wgt>
   <wgt id="1006"> 0.53843E+02 </wgt>
   <wgt id="1007"> 0.50109E+02 </wgt>
   <wgt id="1008"> 0.44501E+02 </wgt>
   <wgt id="1009"> 0.53843E+02 </wgt>
  </rwgt>
  </event>
  <event>
  6     66 0.50109093E+02 0.45995529E+02 0.75563862E-02 0.12114027E+00
        2 -1    0    0  502    0 0.00000000E+00 0.00000000E+00 0.94873956E+03 0.94873962E+03 0.33000000E+00 0.0000E+00 0.0000E+00
        5 -1    0    0  501    0 0.00000000E+00 0.00000000E+00 -.35234965E+02 0.35560410E+02 0.48000000E+01 0.0000E+00 0.0000E+00
        6  2    1    2  501    0 -.44060468E+02 -.13200541E+02 0.19817078E+03 0.26748892E+03 0.17367524E+03 0.0000E+00 0.0000E+00
       24  1    3    3    0    0 -.84543999E+02 0.10154502E+02 0.84267754E+02 0.14427645E+03 0.80398000E+02 0.0000E+00 0.0000E+00
        5  1    3    3  501    0 0.40483531E+02 -.23355044E+02 0.11390302E+03 0.12321247E+03 0.48000000E+01 0.0000E+00 0.0000E+00
        1  1    1    2  502    0 0.44060468E+02 0.13200541E+02 0.71533382E+03 0.71681110E+03 0.33000000E+00 0.0000E+00 0.0000E+00
#aMCatNLO 1  6  5  0  0 0.00000000E+00 0.00000000E+00 9  0  0 0.10000000E+01 0.87857055E+00 0.10851095E+01 0.00000000E+00 0.00000000E+00
  <rwgt>
   <wgt id="1001"> 0.50109E+02 </wgt>
   <wgt id="1002"> 0.44024E+02 </wgt>
   <wgt id="1003"> 0.54374E+02 </wgt>
   <wgt id="1004"> 0.50109E+02 </wgt>
   <wgt id="1005"> 0.44024E+02 </wgt>
   <wgt id="1006"> 0.54374E+02 </wgt>
   <wgt id="1007"> 0.50109E+02 </wgt>
   <wgt id="1008"> 0.44024E+02 </wgt>
   <wgt id="1009"> 0.54374E+02 </wgt>
  </rwgt>
  </event>
  <event>
  6     66 0.50109093E+02 0.26419506E+02 0.75563862E-02 0.12114027E+00
        2 -1    0    0  502    0 0.00000000E+00 0.00000000E+00 0.28015384E+03 0.28015403E+03 0.33000000E+00 0.0000E+00 0.0000E+00
        5 -1    0    0  501    0 0.00000000E+00 0.00000000E+00 -.36535382E+02 0.36849344E+02 0.48000000E+01 0.0000E+00 0.0000E+00
        6  2    1    2  501    0 0.24442803E+02 0.10019752E+02 0.22322985E+03 0.28363198E+03 0.17296730E+03 0.0000E+00 0.0000E+00
       24  1    3    3    0    0 0.77677480E+01 0.72869287E+02 0.15383015E+03 0.18840866E+03 0.80398000E+02 0.0000E+00 0.0000E+00
        5  1    3    3  501    0 0.16675055E+02 -.62849535E+02 0.69399697E+02 0.95223313E+02 0.48000000E+01 0.0000E+00 0.0000E+00
        1  1    1    2  502    0 -.24442803E+02 -.10019752E+02 0.20388607E+02 0.33371399E+02 0.33000000E+00 0.0000E+00 0.0000E+00
#aMCatNLO 1  6  2  0  0 0.00000000E+00 0.00000000E+00 9  0  0 0.10000000E+01 0.83164067E+00 0.11389422E+01 0.00000000E+00 0.00000000E+00
  <rwgt>
   <wgt id="1001"> 0.50109E+02 </wgt>
   <wgt id="1002"> 0.41673E+02 </wgt>
   <wgt id="1003"> 0.57071E+02 </wgt>
   <wgt id="1004"> 0.50109E+02 </wgt>
   <wgt id="1005"> 0.41673E+02 </wgt>
   <wgt id="1006"> 0.57071E+02 </wgt>
   <wgt id="1007"> 0.50109E+02 </wgt>
   <wgt id="1008"> 0.41673E+02 </wgt>
   <wgt id="1009"> 0.57071E+02 </wgt>
  </rwgt>
  </event>
  <event>
  6     66 0.50109093E+02 0.12966097E+02 0.75563862E-02 0.12114027E+00
        5 -1    0    0  502    0 0.00000000E+00 0.00000000E+00 0.61045021E+03 0.61046908E+03 0.48000000E+01 0.0000E+00 0.0000E+00
       -1 -1    0    0    0  501 0.00000000E+00 0.00000000E+00 -.55534557E+02 0.55535538E+02 0.33000000E+00 0.0000E+00 0.0000E+00
        6  2    1    2  502    0 0.35525660E+00 -.12961201E+02 0.59704377E+03 0.62192507E+03 0.17367041E+03 0.0000E+00 0.0000E+00
       24  1    3    3    0    0 0.35804428E+02 -.52153751E+02 0.23905856E+03 0.26002846E+03 0.80398000E+02 0.0000E+00 0.0000E+00
        5  1    3    3  502    0 -.35449172E+02 0.39192551E+02 0.35798522E+03 0.36189661E+03 0.48000000E+01 0.0000E+00 0.0000E+00
       -2  1    1    2    0  501 -.35525660E+00 0.12961201E+02 -.42128120E+02 0.44079545E+02 0.33000000E+00 0.0000E+00 0.0000E+00
#aMCatNLO 1  6  5  0  0 0.00000000E+00 0.00000000E+00 9  0  0 0.10000000E+01 0.86508458E+00 0.10975587E+01 0.00000000E+00 0.00000000E+00
  <rwgt>
   <wgt id="1001"> 0.50109E+02 </wgt>
   <wgt id="1002"> 0.43349E+02 </wgt>
   <wgt id="1003"> 0.54998E+02 </wgt>
   <wgt id="1004"> 0.50109E+02 </wgt>
   <wgt id="1005"> 0.43349E+02 </wgt>
   <wgt id="1006"> 0.54998E+02 </wgt>
   <wgt id="1007"> 0.50109E+02 </wgt>
   <wgt id="1008"> 0.43349E+02 </wgt>
   <wgt id="1009"> 0.54998E+02 </wgt>
  </rwgt>
  </event>
  <event>
  6     66 0.50109093E+02 0.82350734E+02 0.75563862E-02 0.12114027E+00
       -3 -1    0    0    0  501 0.00000000E+00 0.00000000E+00 0.46590232E+02 0.46592915E+02 0.50000000E+00 0.0000E+00 0.0000E+00
        5 -1    0    0  502    0 -.00000000E+00 -.00000000E+00 -.56196197E+03 0.56198247E+03 0.48000000E+01 0.0000E+00 0.0000E+00
        6  2    1    2  502    0 -.79906810E+02 0.19894513E+02 -.48401957E+03 0.52044992E+03 0.17266232E+03 0.0000E+00 0.0000E+00
       24  1    3    3    0    0 0.46783221E+01 0.50050980E+02 -.31545257E+03 0.32939513E+03 0.80398000E+02 0.0000E+00 0.0000E+00
        5  1    3    3  502    0 -.84585133E+02 -.30156467E+02 -.16856700E+03 0.19105478E+03 0.48000000E+01 0.0000E+00 0.0000E+00
       -4  1    1    2    0  501 0.79906810E+02 -.19894513E+02 -.31352163E+02 0.88125468E+02 0.15000000E+01 0.0000E+00 0.0000E+00
#aMCatNLO 1  6  5  0  0 0.00000000E+00 0.00000000E+00 9  0  0 0.99999998E+00 0.84264439E+00 0.11209240E+01 0.00000000E+00 0.00000000E+00
  <rwgt>
   <wgt id="1001"> 0.50109E+02 </wgt>
   <wgt id="1002"> 0.42224E+02 </wgt>
   <wgt id="1003"> 0.56169E+02 </wgt>
   <wgt id="1004"> 0.50109E+02 </wgt>
   <wgt id="1005"> 0.42224E+02 </wgt>
   <wgt id="1006"> 0.56169E+02 </wgt>
   <wgt id="1007"> 0.50109E+02 </wgt>
   <wgt id="1008"> 0.42224E+02 </wgt>
   <wgt id="1009"> 0.56169E+02 </wgt>
  </rwgt>
  </event>
  <event>
  5     66 0.50109093E+02 0.46995763E+02 0.75563862E-02 0.12114027E+00
        2 -1    0    0  502    0 0.00000000E+00 0.00000000E+00 0.11728425E+04 0.11728425E+04 0.33000000E+00 0.0000E+00 0.0000E+00
        5 -1    0    0  501    0 0.00000000E+00 0.00000000E+00 -.17782598E+02 0.18419034E+02 0.48000000E+01 0.0000E+00 0.0000E+00
       24  1    1    2    0    0 -.18846102E+02 -.52515018E+02 0.24535163E+03 0.26414818E+03 0.80398000E+02 0.0000E+00 0.0000E+00
        5  1    1    2  501    0 -.57522861E+01 0.92540519E+02 0.26683541E+03 0.28252613E+03 0.48000000E+01 0.0000E+00 0.0000E+00
        1  1    1    2  502    0 0.24598388E+02 -.40025501E+02 0.64287282E+03 0.64458723E+03 0.33000000E+00 0.0000E+00 0.0000E+00
#aMCatNLO 1  6  2  0  0 0.00000000E+00 0.00000000E+00 9  0  0 0.99999998E+00 0.87700916E+00 0.10867172E+01 0.00000000E+00 0.00000000E+00
  <rwgt>
   <wgt id="1001"> 0.50109E+02 </wgt>
   <wgt id="1002"> 0.43946E+02 </wgt>
   <wgt id="1003"> 0.54454E+02 </wgt>
   <wgt id="1004"> 0.50109E+02 </wgt>
   <wgt id="1005"> 0.43946E+02 </wgt>
   <wgt id="1006"> 0.54454E+02 </wgt>
   <wgt id="1007"> 0.50109E+02 </wgt>
   <wgt id="1008"> 0.43946E+02 </wgt>
   <wgt id="1009"> 0.54454E+02 </wgt>
  </rwgt>
  </event>
  <event>
  5     66 0.50109093E+02 0.36126190E+02 0.75563862E-02 0.12114027E+00
        5 -1    0    0  501    0 0.00000000E+00 0.00000000E+00 0.36768896E+02 0.37080881E+02 0.48000000E+01 0.0000E+00 0.0000E+00
        2 -1    0    0  502    0 -.00000000E+00 -.00000000E+00 -.35533870E+03 0.35533885E+03 0.33000000E+00 0.0000E+00 0.0000E+00
       24  1    1    2    0    0 -.70914727E+02 0.94909379E+01 -.21094710E+03 0.23681531E+03 0.80398000E+02 0.0000E+00 0.0000E+00
        5  1    1    2  501    0 0.32075793E+02 -.16446934E+02 0.45928087E+01 0.36653677E+02 0.48000000E+01 0.0000E+00 0.0000E+00
        1  1    1    2  502    0 0.38838934E+02 0.69559961E+01 -.11221552E+03 0.11895074E+03 0.33000000E+00 0.0000E+00 0.0000E+00
#aMCatNLO 1  6  5  0  0 0.00000000E+00 0.00000000E+00 9  0  0 0.10000000E+01 0.83858997E+00 0.11306999E+01 0.00000000E+00 0.00000000E+00
  <rwgt>
   <wgt id="1001"> 0.50109E+02 </wgt>
   <wgt id="1002"> 0.42021E+02 </wgt>
   <wgt id="1003"> 0.56658E+02 </wgt>
   <wgt id="1004"> 0.50109E+02 </wgt>
   <wgt id="1005"> 0.42021E+02 </wgt>
   <wgt id="1006"> 0.56658E+02 </wgt>
   <wgt id="1007"> 0.50109E+02 </wgt>
   <wgt id="1008"> 0.42021E+02 </wgt>
   <wgt id="1009"> 0.56658E+02 </wgt>
  </rwgt>
  </event>
  <event>
  6     66 0.50109093E+02 0.63620563E+02 0.75563862E-02 0.12114027E+00
        2 -1    0    0  502    0 0.00000000E+00 0.00000000E+00 0.10558815E+04 0.10558816E+04 0.33000000E+00 0.0000E+00 0.0000E+00
        5 -1    0    0  501    0 0.00000000E+00 0.00000000E+00 -.73434384E+03 0.73435953E+03 0.48000000E+01 0.0000E+00 0.0000E+00
        6  2    1    2  501    0 0.86971211E+02 0.39431973E+02 -.71881393E+03 0.74551604E+03 0.17315263E+03 0.0000E+00 0.0000E+00
       24  1    3    3    0    0 0.23555456E+02 0.44346893E+02 -.18467403E+03 0.20758093E+03 0.80398000E+02 0.0000E+00 0.0000E+00
        5  1    3    3  501    0 0.63415756E+02 -.49149196E+01 -.53413990E+03 0.53793512E+03 0.48000000E+01 0.0000E+00 0.0000E+00
        1  1    1    2  502    0 -.86971211E+02 -.39431973E+02 0.10403516E+04 0.10447250E+04 0.33000000E+00 0.0000E+00 0.0000E+00
#aMCatNLO 1  6  2  0  0 0.00000000E+00 0.00000000E+00 9  0  0 0.99999995E+00 0.98167890E+00 0.99999995E+00 0.00000000E+00 0.00000000E+00
  <rwgt>
   <wgt id="1001"> 0.50109E+02 </wgt>
   <wgt id="1002"> 0.49191E+02 </wgt>
   <wgt id="1003"> 0.49314E+02 </wgt>
   <wgt id="1004"> 0.50109E+02 </wgt>
   <wgt id="1005"> 0.49191E+02 </wgt>
   <wgt id="1006"> 0.49314E+02 </wgt>
   <wgt id="1007"> 0.50109E+02 </wgt>
   <wgt id="1008"> 0.49191E+02 </wgt>
   <wgt id="1009"> 0.49314E+02 </wgt>
  </rwgt>
  </event>
  <event>
  5     66 0.50109093E+02 0.19850320E+02 0.75563862E-02 0.12114027E+00
        2 -1    0    0  502    0 0.00000000E+00 0.00000000E+00 0.25445906E+04 0.25445906E+04 0.33000000E+00 0.0000E+00 0.0000E+00
        5 -1    0    0  501    0 0.00000000E+00 0.00000000E+00 -.23994959E+01 0.53663377E+01 0.48000000E+01 0.0000E+00 0.0000E+00
       24  1    1    2    0    0 0.16815972E+02 -.33038028E+02 0.59154696E+03 0.59813538E+03 0.80398000E+02 0.0000E+00 0.0000E+00
        5  1    1    2  501    0 -.36518905E+02 0.30679527E+02 0.13876964E+04 0.13885241E+04 0.48000000E+01 0.0000E+00 0.0000E+00
        1  1    1    2  502    0 0.19702934E+02 0.23585002E+01 0.56294771E+03 0.56329744E+03 0.33000000E+00 0.0000E+00 0.0000E+00
#aMCatNLO 1  6  2  0  0 0.00000000E+00 0.00000000E+00 9  0  0 0.99999997E+00 0.92646269E+00 0.10346996E+01 0.00000000E+00 0.00000000E+00
  <rwgt>
   <wgt id="1001"> 0.50109E+02 </wgt>
   <wgt id="1002"> 0.46424E+02 </wgt>
   <wgt id="1003"> 0.51848E+02 </wgt>
   <wgt id="1004"> 0.50109E+02 </wgt>
   <wgt id="1005"> 0.46424E+02 </wgt>
   <wgt id="1006"> 0.51848E+02 </wgt>
   <wgt id="1007"> 0.50109E+02 </wgt>
   <wgt id="1008"> 0.46424E+02 </wgt>
   <wgt id="1009"> 0.51848E+02 </wgt>
  </rwgt>
  </event>
  <event>
  5     66 0.50109093E+02 0.24634961E+02 0.75563862E-02 0.12114027E+00
        2 -1    0    0  502    0 0.00000000E+00 0.00000000E+00 0.10780117E+04 0.10780117E+04 0.33000000E+00 0.0000E+00 0.0000E+00
        5 -1    0    0  501    0 0.00000000E+00 0.00000000E+00 -.19179704E+02 0.19771217E+02 0.48000000E+01 0.0000E+00 0.0000E+00
       24  1    1    2    0    0 0.75098706E+02 -.13726569E+02 0.54561097E+03 0.55676153E+03 0.80398000E+02 0.0000E+00 0.0000E+00
        5  1    1    2  501    0 -.52808158E+01 -.24047055E+02 0.37015367E+01 0.25355261E+02 0.48000000E+01 0.0000E+00 0.0000E+00
        1  1    1    2  502    0 -.69817890E+02 0.37773624E+02 0.50951944E+03 0.51566613E+03 0.33000000E+00 0.0000E+00 0.0000E+00
#aMCatNLO 1  6  2  0  0 0.00000000E+00 0.00000000E+00 9  0  0 0.99999998E+00 0.87305560E+00 0.10910921E+01 0.00000000E+00 0.00000000E+00
  <rwgt>
   <wgt id="1001"> 0.50109E+02 </wgt>
   <wgt id="1002"> 0.43748E+02 </wgt>
   <wgt id="1003"> 0.54674E+02 </wgt>
   <wgt id="1004"> 0.50109E+02 </wgt>
   <wgt id="1005"> 0.43748E+02 </wgt>
   <wgt id="1006"> 0.54674E+02 </wgt>
   <wgt id="1007"> 0.50109E+02 </wgt>
   <wgt id="1008"> 0.43748E+02 </wgt>
   <wgt id="1009"> 0.54674E+02 </wgt>
  </rwgt>
  </event>
  <event>
  6     66 0.50109093E+02 0.36814797E+02 0.75563862E-02 0.12114027E+00
        5 -1    0    0  502    0 0.00000000E+00 0.00000000E+00 0.56420193E+03 0.56422234E+03 0.48000000E+01 0.0000E+00 0.0000E+00
       -1 -1    0    0    0  501 0.00000000E+00 0.00000000E+00 -.24718692E+02 0.24720895E+02 0.33000000E+00 0.0000E+00 0.0000E+00
        6  2    1    2  502    0 -.57826536E+01 0.36356995E+02 0.51511684E+03 0.54479462E+03 0.17349511E+03 0.0000E+00 0.0000E+00
       24  1    3    3    0    0 0.27448979E+02 0.82081861E+02 0.30271966E+03 0.32495216E+03 0.80398000E+02 0.0000E+00 0.0000E+00
        5  1    3    3  502    0 -.33231633E+02 -.45724866E+02 0.21239718E+03 0.21984246E+03 0.48000000E+01 0.0000E+00 0.0000E+00
       -2  1    1    2    0  501 0.57826536E+01 -.36356995E+02 0.24366395E+02 0.44148616E+02 0.33000000E+00 0.0000E+00 0.0000E+00
#aMCatNLO 1  6  2  0  0 0.00000000E+00 0.00000000E+00 9  0  0 0.99999997E+00 0.83898317E+00 0.11271480E+01 0.00000000E+00 0.00000000E+00
  <rwgt>
   <wgt id="1001"> 0.50109E+02 </wgt>
   <wgt id="1002"> 0.42041E+02 </wgt>
   <wgt id="1003"> 0.56480E+02 </wgt>
   <wgt id="1004"> 0.50109E+02 </wgt>
   <wgt id="1005"> 0.42041E+02 </wgt>
   <wgt id="1006"> 0.56480E+02 </wgt>
   <wgt id="1007"> 0.50109E+02 </wgt>
   <wgt id="1008"> 0.42041E+02 </wgt>
   <wgt id="1009"> 0.56480E+02 </wgt>
  </rwgt>
  </event>
  <event>
  5     66 0.50109093E+02 0.52282311E+02 0.75563862E-02 0.12114027E+00
        2 -1    0    0  502    0 0.00000000E+00 0.00000000E+00 0.85857407E+03 0.85857413E+03 0.33000000E+00 0.0000E+00 0.0000E+00
        5 -1    0    0  501    0 0.00000000E+00 0.00000000E+00 -.15702052E+02 0.16419331E+02 0.48000000E+01 0.0000E+00 0.0000E+00
       24  1    1    2    0    0 -.29814775E+02 -.31088802E+02 0.43345097E+03 0.44294358E+03 0.80398000E+02 0.0000E+00 0.0000E+00
        5  1    1    2  501    0 0.16994706E+02 0.81771222E+02 0.21439628E+03 0.23013943E+03 0.48000000E+01 0.0000E+00 0.0000E+00
        1  1    1    2  502    0 0.12820069E+02 -.50682420E+02 0.19502477E+03 0.20191046E+03 0.33000000E+00 0.0000E+00 0.0000E+00
#aMCatNLO 1  6  5  0  0 0.00000000E+00 0.00000000E+00 9  0  0 0.99999998E+00 0.85579003E+00 0.11104897E+01 0.00000000E+00 0.00000000E+00
  <rwgt>
   <wgt id="1001"> 0.50109E+02 </wgt>
   <wgt id="1002"> 0.42883E+02 </wgt>
   <wgt id="1003"> 0.55646E+02 </wgt>
   <wgt id="1004"> 0.50109E+02 </wgt>
   <wgt id="1005"> 0.42883E+02 </wgt>
   <wgt id="1006"> 0.55646E+02 </wgt>
   <wgt id="1007"> 0.50109E+02 </wgt>
   <wgt id="1008"> 0.42883E+02 </wgt>
   <wgt id="1009"> 0.55646E+02 </wgt>
  </rwgt>
  </event>
  <event>
  6     66 0.50109093E+02 0.43779725E+02 0.75563862E-02 0.12114027E+00
        5 -1    0    0  501    0 0.00000000E+00 0.00000000E+00 0.27435913E+02 0.27852636E+02 0.48000000E+01 0.0000E+00 0.0000E+00
        2 -1    0    0  502    0 0.00000000E+00 0.00000000E+00 -.53402180E+03 0.53402190E+03 0.33000000E+00 0.0000E+00 0.0000E+00
        6  2    1    2  501    0 -.10901730E+02 -.42399932E+02 -.28686523E+03 0.33783463E+03 0.17298549E+03 0.0000E+00 0.0000E+00
       24  1    3    3    0    0 0.37896444E+02 0.21774379E+02 -.10783071E+03 0.14142689E+03 0.80398000E+02 0.0000E+00 0.0000E+00
        5  1    3    3  501    0 -.48798175E+02 -.64174311E+02 -.17903452E+03 0.19640775E+03 0.48000000E+01 0.0000E+00 0.0000E+00
        1  1    1    2  502    0 0.10901730E+02 0.42399932E+02 -.21972066E+03 0.22403990E+03 0.33000000E+00 0.0000E+00 0.0000E+00
#aMCatNLO 1  6  2  0  0 0.00000000E+00 0.00000000E+00 9  0  0 0.10000000E+01 0.84596746E+00 0.11219509E+01 0.00000000E+00 0.00000000E+00
  <rwgt>
   <wgt id="1001"> 0.50109E+02 </wgt>
   <wgt id="1002"> 0.42391E+02 </wgt>
   <wgt id="1003"> 0.56220E+02 </wgt>
   <wgt id="1004"> 0.50109E+02 </wgt>
   <wgt id="1005"> 0.42391E+02 </wgt>
   <wgt id="1006"> 0.56220E+02 </wgt>
   <wgt id="1007"> 0.50109E+02 </wgt>
   <wgt id="1008"> 0.42391E+02 </wgt>
   <wgt id="1009"> 0.56220E+02 </wgt>
  </rwgt>
  </event>
  <event>
  5     66 0.50109093E+02 0.45109018E+02 0.75563862E-02 0.12114027E+00
        5 -1    0    0  501    0 0.00000000E+00 0.00000000E+00 0.13425757E+02 0.14258014E+02 0.48000000E+01 0.0000E+00 0.0000E+00
        2 -1    0    0  502    0 0.00000000E+00 0.00000000E+00 -.91647000E+03 0.91647006E+03 0.33000000E+00 0.0000E+00 0.0000E+00
       24  1    1    2    0    0 0.17945067E+02 -.30053160E+01 -.55068669E+03 0.55682199E+03 0.80398000E+02 0.0000E+00 0.0000E+00
        5  1    1    2  501    0 -.62951876E+02 0.36837188E-02 -.10539636E+03 0.12285915E+03 0.48000000E+01 0.0000E+00 0.0000E+00
        1  1    1    2  502    0 0.45006809E+02 0.30016323E+01 -.24696120E+03 0.25104694E+03 0.33000000E+00 0.0000E+00 0.0000E+00
#aMCatNLO 1  6  2  0  0 0.00000000E+00 0.00000000E+00 9  0  0 0.10000000E+01 0.85624953E+00 0.11099412E+01 0.00000000E+00 0.00000000E+00
  <rwgt>
   <wgt id="1001"> 0.50109E+02 </wgt>
   <wgt id="1002"> 0.42906E+02 </wgt>
   <wgt id="1003"> 0.55618E+02 </wgt>
   <wgt id="1004"> 0.50109E+02 </wgt>
   <wgt id="1005"> 0.42906E+02 </wgt>
   <wgt id="1006"> 0.55618E+02 </wgt>
   <wgt id="1007"> 0.50109E+02 </wgt>
   <wgt id="1008"> 0.42906E+02 </wgt>
   <wgt id="1009"> 0.55618E+02 </wgt>
  </rwgt>
  </event>
  <event>
  6     66 0.50109093E+02 0.72875652E+02 0.75563862E-02 0.12114027E+00
        2 -1    0    0  502    0 0.00000000E+00 0.00000000E+00 0.63000250E+03 0.63000259E+03 0.33000000E+00 0.0000E+00 0.0000E+00
        5 -1    0    0  501    0 0.00000000E+00 0.00000000E+00 -.27444223E+02 0.27860822E+02 0.48000000E+01 0.0000E+00 0.0000E+00
        6  2    1    2  501    0 -.33464764E+02 0.64736873E+02 0.38770383E+03 0.43098614E+03 0.17356278E+03 0.0000E+00 0.0000E+00
       24  1    3    3    0    0 0.45748386E+02 0.27523255E+02 0.15820375E+03 0.18531786E+03 0.80398000E+02 0.0000E+00 0.0000E+00
        5  1    3    3  501    0 -.79213150E+02 0.37213618E+02 0.22950008E+03 0.24566828E+03 0.48000000E+01 0.0000E+00 0.0000E+00
        1  1    1    2  502    0 0.33464764E+02 -.64736873E+02 0.21485444E+03 0.22687727E+03 0.33000000E+00 0.0000E+00 0.0000E+00
#aMCatNLO 1  6  5  0  0 0.00000000E+00 0.00000000E+00 9  0  0 0.10000000E+01 0.85261377E+00 0.11142273E+01 0.00000000E+00 0.00000000E+00
  <rwgt>
   <wgt id="1001"> 0.50109E+02 </wgt>
   <wgt id="1002"> 0.42724E+02 </wgt>
   <wgt id="1003"> 0.55833E+02 </wgt>
   <wgt id="1004"> 0.50109E+02 </wgt>
   <wgt id="1005"> 0.42724E+02 </wgt>
   <wgt id="1006"> 0.55833E+02 </wgt>
   <wgt id="1007"> 0.50109E+02 </wgt>
   <wgt id="1008"> 0.42724E+02 </wgt>
   <wgt id="1009"> 0.55833E+02 </wgt>
  </rwgt>
  </event>
  <event>
  6     66 0.50109093E+02 0.32687123E+02 0.75563862E-02 0.12114027E+00
        5 -1    0    0  501    0 0.00000000E+00 0.00000000E+00 0.24214526E+03 0.24219283E+03 0.48000000E+01 0.0000E+00 0.0000E+00
        2 -1    0    0  502    0 0.00000000E+00 0.00000000E+00 -.65363468E+02 0.65364301E+02 0.33000000E+00 0.0000E+00 0.0000E+00
        6  2    1    2  501    0 -.17148021E+02 -.27827403E+02 0.20050857E+03 0.26716544E+03 0.17350869E+03 0.0000E+00 0.0000E+00
       24  1    3    3    0    0 0.45714035E+02 -.47215934E+02 0.85181991E+02 0.13430907E+03 0.80398000E+02 0.0000E+00 0.0000E+00
        5  1    3    3  501    0 -.62862055E+02 0.19388531E+02 0.11532658E+03 0.13285637E+03 0.48000000E+01 0.0000E+00 0.0000E+00
        1  1    1    2  502    0 0.17148021E+02 0.27827403E+02 -.23726787E+02 0.40391686E+02 0.33000000E+00 0.0000E+00 0.0000E+00
#aMCatNLO 1  6  2  0  0 0.00000000E+00 0.00000000E+00 9  0  0 0.10000000E+01 0.84099847E+00 0.11267470E+01 0.00000000E+00 0.00000000E+00
  <rwgt>
   <wgt id="1001"> 0.50109E+02 </wgt>
   <wgt id="1002"> 0.42142E+02 </wgt>
   <wgt id="1003"> 0.56460E+02 </wgt>
   <wgt id="1004"> 0.50109E+02 </wgt>
   <wgt id="1005"> 0.42142E+02 </wgt>
   <wgt id="1006"> 0.56460E+02 </wgt>
   <wgt id="1007"> 0.50109E+02 </wgt>
   <wgt id="1008"> 0.42142E+02 </wgt>
   <wgt id="1009"> 0.56460E+02 </wgt>
  </rwgt>
  </event>
  <event>
  6     66 0.50109093E+02 0.65316529E+02 0.75563862E-02 0.12114027E+00
        2 -1    0    0  502    0 0.00000000E+00 0.00000000E+00 0.10324120E+04 0.10324121E+04 0.33000000E+00 0.0000E+00 0.0000E+00
        5 -1    0    0  501    0 0.00000000E+00 0.00000000E+00 -.41475684E+02 0.41752513E+02 0.48000000E+01 0.0000E+00 0.0000E+00
        6  2    1    2  501    0 0.12458467E+02 -.11696735E+03 0.25789396E+03 0.33174434E+03 0.17236137E+03 0.0000E+00 0.0000E+00
       24  1    3    3    0    0 0.97814642E+01 -.51689975E+02 0.39752423E+02 0.10397896E+03 0.80398000E+02 0.0000E+00 0.0000E+00
        5  1    3    3  501    0 0.26770025E+01 -.65277374E+02 0.21814153E+03 0.22776538E+03 0.48000000E+01 0.0000E+00 0.0000E+00
        1  1    1    2  502    0 -.12458467E+02 0.11696735E+03 0.73304240E+03 0.74242026E+03 0.33000000E+00 0.0000E+00 0.0000E+00
#aMCatNLO 1  6  2  0  0 0.00000000E+00 0.00000000E+00 9  0  0 0.10000000E+01 0.88747203E+00 0.10755685E+01 0.00000000E+00 0.00000000E+00
  <rwgt>
   <wgt id="1001"> 0.50109E+02 </wgt>
   <wgt id="1002"> 0.44470E+02 </wgt>
   <wgt id="1003"> 0.53896E+02 </wgt>
   <wgt id="1004"> 0.50109E+02 </wgt>
   <wgt id="1005"> 0.44470E+02 </wgt>
   <wgt id="1006"> 0.53896E+02 </wgt>
   <wgt id="1007"> 0.50109E+02 </wgt>
   <wgt id="1008"> 0.44470E+02 </wgt>
   <wgt id="1009"> 0.53896E+02 </wgt>
  </rwgt>
  </event>
  <event>
  6     66 0.50109093E+02 0.85607234E+01 0.75563862E-02 0.12114027E+00
        4 -1    0    0  502    0 0.00000000E+00 0.00000000E+00 0.35605307E+02 0.35636889E+02 0.15000000E+01 0.0000E+00 0.0000E+00
        5 -1    0    0  501    0 -.00000000E+00 -.00000000E+00 -.34690611E+03 0.34693931E+03 0.48000000E+01 0.0000E+00 0.0000E+00
        6  2    1    2  501    0 -.13952766E+01 0.84456485E+01 -.32376355E+03 0.36744855E+03 0.17355784E+03 0.0000E+00 0.0000E+00
       24  1    3    3    0    0 0.26141561E+02 0.20862005E+02 -.69663480E+02 0.11151432E+03 0.80398000E+02 0.0000E+00 0.0000E+00
        5  1    3    3  501    0 -.27536837E+02 -.12416357E+02 -.25410007E+03 0.25593423E+03 0.48000000E+01 0.0000E+00 0.0000E+00
        3  1    1    2  502    0 0.13952766E+01 -.84456485E+01 0.12462751E+02 0.15127655E+02 0.50000000E+00 0.0000E+00 0.0000E+00
#aMCatNLO 1  6  5  0  0 0.00000000E+00 0.00000000E+00 9  0  0 0.10000000E+01 0.79677427E+00 0.11727149E+01 0.00000000E+00 0.00000000E+00
  <rwgt>
   <wgt id="1001"> 0.50109E+02 </wgt>
   <wgt id="1002"> 0.39926E+02 </wgt>
   <wgt id="1003"> 0.58764E+02 </wgt>
   <wgt id="1004"> 0.50109E+02 </wgt>
   <wgt id="1005"> 0.39926E+02 </wgt>
   <wgt id="1006"> 0.58764E+02 </wgt>
   <wgt id="1007"> 0.50109E+02 </wgt>
   <wgt id="1008"> 0.39926E+02 </wgt>
   <wgt id="1009"> 0.58764E+02 </wgt>
  </rwgt>
  </event>
  <event>
  5     66 0.50109093E+02 0.10436508E+02 0.75563862E-02 0.12114027E+00
        5 -1    0    0  501    0 0.00000000E+00 0.00000000E+00 0.61362764E+02 0.61550214E+02 0.48000000E+01 0.0000E+00 0.0000E+00
        2 -1    0    0  502    0 0.00000000E+00 0.00000000E+00 -.25213595E+03 0.25213617E+03 0.33000000E+00 0.0000E+00 0.0000E+00
       24  1    1    2    0    0 0.28488791E+02 -.93620324E+01 -.12864048E+03 0.15463334E+03 0.80398000E+02 0.0000E+00 0.0000E+00
        5  1    1    2  501    0 0.60282492E+01 0.86100770E+01 0.45017854E+02 0.46477095E+02 0.48000000E+01 0.0000E+00 0.0000E+00
        1  1    1    2  502    0 -.34517041E+02 0.75195542E+00 -.10715056E+03 0.11257595E+03 0.33000000E+00 0.0000E+00 0.0000E+00
#aMCatNLO 1  6  2  0  0 0.00000000E+00 0.00000000E+00 9  0  0 0.10000000E+01 0.84051249E+00 0.11284199E+01 0.00000000E+00 0.00000000E+00
  <rwgt>
   <wgt id="1001"> 0.50109E+02 </wgt>
   <wgt id="1002"> 0.42118E+02 </wgt>
   <wgt id="1003"> 0.56544E+02 </wgt>
   <wgt id="1004"> 0.50109E+02 </wgt>
   <wgt id="1005"> 0.42118E+02 </wgt>
   <wgt id="1006"> 0.56544E+02 </wgt>
   <wgt id="1007"> 0.50109E+02 </wgt>
   <wgt id="1008"> 0.42118E+02 </wgt>
   <wgt id="1009"> 0.56544E+02 </wgt>
  </rwgt>
  </event>
  <event>
  6     66 0.50109093E+02 0.16729458E+02 0.75563862E-02 0.12114027E+00
        5 -1    0    0  501    0 0.00000000E+00 0.00000000E+00 0.25337526E+02 0.25788180E+02 0.48000000E+01 0.0000E+00 0.0000E+00
        2 -1    0    0  502    0 0.00000000E+00 0.00000000E+00 -.11464051E+04 0.11464052E+04 0.33000000E+00 0.0000E+00 0.0000E+00
        6  2    1    2  501    0 0.14792858E+02 -.78130608E+01 -.27589299E+03 0.32685312E+03 0.17445959E+03 0.0000E+00 0.0000E+00
       24  1    3    3    0    0 -.53322654E+02 -.32287023E+02 -.17789185E+03 0.20492707E+03 0.80398000E+02 0.0000E+00 0.0000E+00
        5  1    3    3  501    0 0.68115512E+02 0.24473962E+02 -.98001139E+02 0.12192605E+03 0.48000000E+01 0.0000E+00 0.0000E+00
        1  1    1    2  502    0 -.14792858E+02 0.78130608E+01 -.84517460E+03 0.84534022E+03 0.33000000E+00 0.0000E+00 0.0000E+00
#aMCatNLO 1  6  2  0  0 0.00000000E+00 0.00000000E+00 9  0  0 0.10000000E+01 0.88299425E+00 0.10802360E+01 0.00000000E+00 0.00000000E+00
  <rwgt>
   <wgt id="1001"> 0.50109E+02 </wgt>
   <wgt id="1002"> 0.44246E+02 </wgt>
   <wgt id="1003"> 0.54129E+02 </wgt>
   <wgt id="1004"> 0.50109E+02 </wgt>
   <wgt id="1005"> 0.44246E+02 </wgt>
   <wgt id="1006"> 0.54129E+02 </wgt>
   <wgt id="1007"> 0.50109E+02 </wgt>
   <wgt id="1008"> 0.44246E+02 </wgt>
   <wgt id="1009"> 0.54129E+02 </wgt>
  </rwgt>
  </event>
  <event>
  6     66 0.50109093E+02 0.69183645E+02 0.75563862E-02 0.12114027E+00
        5 -1    0    0  501    0 0.00000000E+00 0.00000000E+00 0.30093977E+03 0.30097805E+03 0.48000000E+01 0.0000E+00 0.0000E+00
        2 -1    0    0  502    0 -.00000000E+00 -.00000000E+00 -.57854594E+03 0.57854603E+03 0.33000000E+00 0.0000E+00 0.0000E+00
        6  2    1    2  501    0 -.59176201E+02 0.87461873E+02 0.26104819E+03 0.33061604E+03 0.17323223E+03 0.0000E+00 0.0000E+00
       24  1    3    3    0    0 0.87005964E+01 0.10050945E+03 0.13464835E+03 0.18647216E+03 0.80398000E+02 0.0000E+00 0.0000E+00
        5  1    3    3  501    0 -.67876797E+02 -.13047577E+02 0.12639984E+03 0.14414388E+03 0.48000000E+01 0.0000E+00 0.0000E+00
        1  1    1    2  502    0 0.59176201E+02 -.87461873E+02 -.53865436E+03 0.54890804E+03 0.33000000E+00 0.0000E+00 0.0000E+00
#aMCatNLO 1  6  5  0  0 0.00000000E+00 0.00000000E+00 9  0  0 0.99999999E+00 0.91018525E+00 0.10521786E+01 0.00000000E+00 0.00000000E+00
  <rwgt>
   <wgt id="1001"> 0.50109E+02 </wgt>
   <wgt id="1002"> 0.45608E+02 </wgt>
   <wgt id="1003"> 0.52724E+02 </wgt>
   <wgt id="1004"> 0.50109E+02 </wgt>
   <wgt id="1005"> 0.45608E+02 </wgt>
   <wgt id="1006"> 0.52724E+02 </wgt>
   <wgt id="1007"> 0.50109E+02 </wgt>
   <wgt id="1008"> 0.45608E+02 </wgt>
   <wgt id="1009"> 0.52724E+02 </wgt>
  </rwgt>
  </event>
  <event>
  6     66 0.50109093E+02 0.14400234E+02 0.75563862E-02 0.12114027E+00
        5 -1    0    0  502    0 0.00000000E+00 0.00000000E+00 0.12845712E+03 0.12854677E+03 0.48000000E+01 0.0000E+00 0.0000E+00
       -1 -1    0    0    0  501 -.00000000E+00 -.00000000E+00 -.31947746E+03 0.31947763E+03 0.33000000E+00 0.0000E+00 0.0000E+00
        6  2    1    2  502    0 -.23338707E+02 0.13085010E+02 0.67729797E+02 0.18789432E+03 0.17320807E+03 0.0000E+00 0.0000E+00
       24  1    3    3    0    0 -.32500348E+02 0.20094703E+01 -.27863591E+02 0.91107237E+02 0.80398000E+02 0.0000E+00 0.0000E+00
        5  1    3    3  502    0 0.91616402E+01 0.11075540E+02 0.95593389E+02 0.96787082E+02 0.48000000E+01 0.0000E+00 0.0000E+00
       -2  1    1    2    0  501 0.23338707E+02 -.13085010E+02 -.25875014E+03 0.26013008E+03 0.33000000E+00 0.0000E+00 0.0000E+00
#aMCatNLO 1  6  5  0  0 0.00000000E+00 0.00000000E+00 9  0  0 0.10000000E+01 0.88062017E+00 0.10822723E+01 0.00000000E+00 0.00000000E+00
  <rwgt>
   <wgt id="1001"> 0.50109E+02 </wgt>
   <wgt id="1002"> 0.44127E+02 </wgt>
   <wgt id="1003"> 0.54232E+02 </wgt>
   <wgt id="1004"> 0.50109E+02 </wgt>
   <wgt id="1005"> 0.44127E+02 </wgt>
   <wgt id="1006"> 0.54232E+02 </wgt>
   <wgt id="1007"> 0.50109E+02 </wgt>
   <wgt id="1008"> 0.44127E+02 </wgt>
   <wgt id="1009"> 0.54232E+02 </wgt>
  </rwgt>
  </event>
  <event>
  6     66 0.50109093E+02 0.80499271E+02 0.75563862E-02 0.12114027E+00
        2 -1    0    0  502    0 0.00000000E+00 0.00000000E+00 0.24428276E+03 0.24428299E+03 0.33000000E+00 0.0000E+00 0.0000E+00
        5 -1    0    0  501    0 0.00000000E+00 0.00000000E+00 -.76344519E+02 0.76495265E+02 0.48000000E+01 0.0000E+00 0.0000E+00
        6  2    1    2  501    0 0.67644426E+02 -.43637651E+02 0.13183453E+03 0.23255354E+03 0.17384128E+03 0.0000E+00 0.0000E+00
       24  1    3    3    0    0 0.36579970E+01 0.66363315E+01 0.38899851E+01 0.80847957E+02 0.80398000E+02 0.0000E+00 0.0000E+00
        5  1    3    3  501    0 0.63986429E+02 -.50273982E+02 0.12794455E+03 0.15170558E+03 0.48000000E+01 0.0000E+00 0.0000E+00
        1  1    1    2  502    0 -.67644426E+02 0.43637651E+02 0.36103711E+02 0.88224712E+02 0.33000000E+00 0.0000E+00 0.0000E+00
#aMCatNLO 1  6  2  0  0 0.00000000E+00 0.00000000E+00 9  0  0 0.99999998E+00 0.84475886E+00 0.11234421E+01 0.00000000E+00 0.00000000E+00
  <rwgt>
   <wgt id="1001"> 0.50109E+02 </wgt>
   <wgt id="1002"> 0.42330E+02 </wgt>
   <wgt id="1003"> 0.56295E+02 </wgt>
   <wgt id="1004"> 0.50109E+02 </wgt>
   <wgt id="1005"> 0.42330E+02 </wgt>
   <wgt id="1006"> 0.56295E+02 </wgt>
   <wgt id="1007"> 0.50109E+02 </wgt>
   <wgt id="1008"> 0.42330E+02 </wgt>
   <wgt id="1009"> 0.56295E+02 </wgt>
  </rwgt>
  </event>
  <event>
  6     66 0.50109093E+02 0.10699519E+02 0.75563862E-02 0.12114027E+00
        2 -1    0    0  502    0 0.00000000E+00 0.00000000E+00 0.20792867E+03 0.20792893E+03 0.33000000E+00 0.0000E+00 0.0000E+00
        5 -1    0    0  501    0 0.00000000E+00 0.00000000E+00 -.66995040E+02 0.67166772E+02 0.48000000E+01 0.0000E+00 0.0000E+00
        6  2    1    2  501    0 0.97792861E+01 0.43405859E+01 0.45869512E+02 0.17943082E+03 0.17313847E+03 0.0000E+00 0.0000E+00
       24  1    3    3    0    0 -.62103481E+01 0.16364041E+02 -.39746066E+02 0.91377997E+02 0.80398000E+02 0.0000E+00 0.0000E+00
        5  1    3    3  501    0 0.15989634E+02 -.12023455E+02 0.85615578E+02 0.88052820E+02 0.48000000E+01 0.0000E+00 0.0000E+00
        1  1    1    2  502    0 -.97792861E+01 -.43405859E+01 0.95064117E+02 0.95664886E+02 0.33000000E+00 0.0000E+00 0.0000E+00
#aMCatNLO 1  6  2  0  0 0.00000000E+00 0.00000000E+00 9  0  0 0.99999998E+00 0.83748720E+00 0.11319092E+01 0.00000000E+00 0.00000000E+00
  <rwgt>
   <wgt id="1001"> 0.50109E+02 </wgt>
   <wgt id="1002"> 0.41966E+02 </wgt>
   <wgt id="1003"> 0.56719E+02 </wgt>
   <wgt id="1004"> 0.50109E+02 </wgt>
   <wgt id="1005"> 0.41966E+02 </wgt>
   <wgt id="1006"> 0.56719E+02 </wgt>
   <wgt id="1007"> 0.50109E+02 </wgt>
   <wgt id="1008"> 0.41966E+02 </wgt>
   <wgt id="1009"> 0.56719E+02 </wgt>
  </rwgt>
  </event>
  <event>
  6     66 0.50109093E+02 0.19712952E+02 0.75563862E-02 0.12114027E+00
        2 -1    0    0  502    0 0.00000000E+00 0.00000000E+00 0.15616732E+03 0.15616767E+03 0.33000000E+00 0.0000E+00 0.0000E+00
        5 -1    0    0  501    0 0.00000000E+00 0.00000000E+00 -.23924632E+03 0.23929447E+03 0.48000000E+01 0.0000E+00 0.0000E+00
        6  2    1    2  501    0 -.19712907E+02 0.11458349E-01 -.20628921E+03 0.27068448E+03 0.17414433E+03 0.0000E+00 0.0000E+00
       24  1    3    3    0    0 -.30941946E+02 0.63983084E+02 -.10409398E+03 0.14950129E+03 0.80398000E+02 0.0000E+00 0.0000E+00
        5  1    3    3  501    0 0.11229040E+02 -.63971626E+02 -.10219523E+03 0.12118319E+03 0.48000000E+01 0.0000E+00 0.0000E+00
        1  1    1    2  502    0 0.19712907E+02 -.11458349E-01 0.12321021E+03 0.12477766E+03 0.33000000E+00 0.0000E+00 0.0000E+00
#aMCatNLO 1  6  2  0  0 0.00000000E+00 0.00000000E+00 9  0  0 0.99999999E+00 0.86241338E+00 0.11029560E+01 0.00000000E+00 0.00000000E+00
  <rwgt>
   <wgt id="1001"> 0.50109E+02 </wgt>
   <wgt id="1002"> 0.43215E+02 </wgt>
   <wgt id="1003"> 0.55268E+02 </wgt>
   <wgt id="1004"> 0.50109E+02 </wgt>
   <wgt id="1005"> 0.43215E+02 </wgt>
   <wgt id="1006"> 0.55268E+02 </wgt>
   <wgt id="1007"> 0.50109E+02 </wgt>
   <wgt id="1008"> 0.43215E+02 </wgt>
   <wgt id="1009"> 0.55268E+02 </wgt>
  </rwgt>
  </event>
  <event>
  5     66 0.50109093E+02 0.35447371E+02 0.75563862E-02 0.12114027E+00
        5 -1    0    0  501    0 0.00000000E+00 0.00000000E+00 0.51612579E+02 0.51835300E+02 0.48000000E+01 0.0000E+00 0.0000E+00
        2 -1    0    0  502    0 -.00000000E+00 -.00000000E+00 -.51566130E+03 0.51566140E+03 0.33000000E+00 0.0000E+00 0.0000E+00
       24  1    1    2    0    0 0.82479530E+01 0.37534453E+01 0.13927244E+02 0.82097038E+02 0.80398000E+02 0.0000E+00 0.0000E+00
        5  1    1    2  501    0 0.30062346E+02 -.18758078E+02 -.12438563E+03 0.12942347E+03 0.48000000E+01 0.0000E+00 0.0000E+00
        1  1    1    2  502    0 -.38310299E+02 0.15004633E+02 -.35359033E+03 0.35597619E+03 0.33000000E+00 0.0000E+00 0.0000E+00
#aMCatNLO 1  6  5  0  0 0.00000000E+00 0.00000000E+00 9  0  0 0.99999999E+00 0.85878429E+00 0.11073369E+01 0.00000000E+00 0.00000000E+00
  <rwgt>
   <wgt id="1001"> 0.50109E+02 </wgt>
   <wgt id="1002"> 0.43033E+02 </wgt>
   <wgt id="1003"> 0.55488E+02 </wgt>
   <wgt id="1004"> 0.50109E+02 </wgt>
   <wgt id="1005"> 0.43033E+02 </wgt>
   <wgt id="1006"> 0.55488E+02 </wgt>
   <wgt id="1007"> 0.50109E+02 </wgt>
   <wgt id="1008"> 0.43033E+02 </wgt>
   <wgt id="1009"> 0.55488E+02 </wgt>
  </rwgt>
  </event>
  <event>
  5     66 0.50109093E+02 0.34714963E+02 0.75563862E-02 0.12114027E+00
        2 -1    0    0  502    0 0.00000000E+00 0.00000000E+00 0.10394775E+04 0.10394776E+04 0.33000000E+00 0.0000E+00 0.0000E+00
        5 -1    0    0  501    0 0.00000000E+00 0.00000000E+00 -.27850957E+02 0.28261561E+02 0.48000000E+01 0.0000E+00 0.0000E+00
       24  1    1    2    0    0 -.61153540E+02 -.32279280E+02 0.31755479E+03 0.33479336E+03 0.80398000E+02 0.0000E+00 0.0000E+00
        5  1    1    2  501    0 -.10831158E+02 0.32952260E+02 -.13393373E+00 0.35017472E+02 0.48000000E+01 0.0000E+00 0.0000E+00
        1  1    1    2  502    0 0.71984698E+02 -.67297910E+00 0.69420568E+03 0.69792828E+03 0.33000000E+00 0.0000E+00 0.0000E+00
#aMCatNLO 1  6  5  0  0 0.00000000E+00 0.00000000E+00 9  0  0 0.99999998E+00 0.87876912E+00 0.10848566E+01 0.00000000E+00 0.00000000E+00
  <rwgt>
   <wgt id="1001"> 0.50109E+02 </wgt>
   <wgt id="1002"> 0.44034E+02 </wgt>
   <wgt id="1003"> 0.54361E+02 </wgt>
   <wgt id="1004"> 0.50109E+02 </wgt>
   <wgt id="1005"> 0.44034E+02 </wgt>
   <wgt id="1006"> 0.54361E+02 </wgt>
   <wgt id="1007"> 0.50109E+02 </wgt>
   <wgt id="1008"> 0.44034E+02 </wgt>
   <wgt id="1009"> 0.54361E+02 </wgt>
  </rwgt>
  </event>
  <event>
  5     66 0.50109093E+02 0.52785558E+02 0.75563862E-02 0.12114027E+00
       -1 -1    0    0    0  501 0.00000000E+00 0.00000000E+00 0.15066830E+03 0.15066866E+03 0.33000000E+00 0.0000E+00 0.0000E+00
        5 -1    0    0  502    0 0.00000000E+00 0.00000000E+00 -.15366519E+03 0.15374014E+03 0.48000000E+01 0.0000E+00 0.0000E+00
       24  1    1    2    0    0 0.22322252E+02 0.46988197E+02 -.62881563E+02 0.11456048E+03 0.80398000E+02 0.0000E+00 0.0000E+00
        5  1    1    2  502    0 -.73468649E+02 -.33941521E+02 -.29307547E+02 0.86206969E+02 0.48000000E+01 0.0000E+00 0.0000E+00
       -2  1    1    2    0  501 0.51146397E+02 -.13046676E+02 0.89192222E+02 0.10364136E+03 0.33000000E+00 0.0000E+00 0.0000E+00
#aMCatNLO 1  6  2  0  0 0.00000000E+00 0.00000000E+00 9  0  0 0.99999995E+00 0.85327070E+00 0.11119639E+01 0.00000000E+00 0.00000000E+00
  <rwgt>
   <wgt id="1001"> 0.50109E+02 </wgt>
   <wgt id="1002"> 0.42757E+02 </wgt>
   <wgt id="1003"> 0.55719E+02 </wgt>
   <wgt id="1004"> 0.50109E+02 </wgt>
   <wgt id="1005"> 0.42757E+02 </wgt>
   <wgt id="1006"> 0.55719E+02 </wgt>
   <wgt id="1007"> 0.50109E+02 </wgt>
   <wgt id="1008"> 0.42757E+02 </wgt>
   <wgt id="1009"> 0.55719E+02 </wgt>
  </rwgt>
  </event>
  <event>
  6     66 0.50109093E+02 0.28775163E+02 0.75563862E-02 0.12114027E+00
        5 -1    0    0  501    0 0.00000000E+00 0.00000000E+00 0.11910731E+03 0.11920399E+03 0.48000000E+01 0.0000E+00 0.0000E+00
        2 -1    0    0  502    0 -.00000000E+00 -.00000000E+00 -.38769805E+03 0.38769819E+03 0.33000000E+00 0.0000E+00 0.0000E+00
        6  2    1    2  501    0 0.70227157E+01 -.96302155E+02 0.23415573E+02 0.19934533E+03 0.17282027E+03 0.0000E+00 0.0000E+00
       24  1    3    3    0    0 0.22765266E+02 -.72177533E+02 -.49346623E+02 0.12094123E+03 0.80398000E+02 0.0000E+00 0.0000E+00
        5  1    3    3  501    0 -.15742550E+02 -.24124622E+02 0.72762196E+02 0.78404097E+02 0.48000000E+01 0.0000E+00 0.0000E+00
        1  1    1    2  502    0 -.70227157E+01 0.96302155E+02 -.29200631E+03 0.30755685E+03 0.33000000E+00 0.0000E+00 0.0000E+00
#aMCatNLO 1  6  5  0  0 0.00000000E+00 0.00000000E+00 9  0  0 0.10000000E+01 0.86925929E+00 0.10957487E+01 0.00000000E+00 0.00000000E+00
  <rwgt>
   <wgt id="1001"> 0.50109E+02 </wgt>
   <wgt id="1002"> 0.43558E+02 </wgt>
   <wgt id="1003"> 0.54907E+02 </wgt>
   <wgt id="1004"> 0.50109E+02 </wgt>
   <wgt id="1005"> 0.43558E+02 </wgt>
   <wgt id="1006"> 0.54907E+02 </wgt>
   <wgt id="1007"> 0.50109E+02 </wgt>
   <wgt id="1008"> 0.43558E+02 </wgt>
   <wgt id="1009"> 0.54907E+02 </wgt>
  </rwgt>
  </event>
  <event>
  6     66 0.50109093E+02 0.34633671E+02 0.75563862E-02 0.12114027E+00
        2 -1    0    0  502    0 0.00000000E+00 0.00000000E+00 0.91023436E+02 0.91024034E+02 0.33000000E+00 0.0000E+00 0.0000E+00
        5 -1    0    0  501    0 0.00000000E+00 0.00000000E+00 -.17846240E+03 0.17852694E+03 0.48000000E+01 0.0000E+00 0.0000E+00
        6  2    1    2  501    0 0.18090720E+02 0.29532825E+02 -.12677781E+03 0.21713804E+03 0.17284922E+03 0.0000E+00 0.0000E+00
       24  1    3    3    0    0 0.45192186E+02 -.40690838E+02 -.69861719E+02 0.12264818E+03 0.80398000E+02 0.0000E+00 0.0000E+00
        5  1    3    3  501    0 -.27101466E+02 0.70223663E+02 -.56916095E+02 0.94489863E+02 0.48000000E+01 0.0000E+00 0.0000E+00
        1  1    1    2  502    0 -.18090720E+02 -.29532825E+02 0.39338847E+02 0.52412934E+02 0.33000000E+00 0.0000E+00 0.0000E+00
#aMCatNLO 1  6  2  0  0 0.00000000E+00 0.00000000E+00 9  0  0 0.10000000E+01 0.84113267E+00 0.11269671E+01 0.00000000E+00 0.00000000E+00
  <rwgt>
   <wgt id="1001"> 0.50109E+02 </wgt>
   <wgt id="1002"> 0.42148E+02 </wgt>
   <wgt id="1003"> 0.56471E+02 </wgt>
   <wgt id="1004"> 0.50109E+02 </wgt>
   <wgt id="1005"> 0.42148E+02 </wgt>
   <wgt id="1006"> 0.56471E+02 </wgt>
   <wgt id="1007"> 0.50109E+02 </wgt>
   <wgt id="1008"> 0.42148E+02 </wgt>
   <wgt id="1009"> 0.56471E+02 </wgt>
  </rwgt>
  </event>
  <event>
  6     66 0.50109093E+02 0.88604737E+02 0.75563862E-02 0.12114027E+00
        2 -1    0    0  502    0 0.00000000E+00 0.00000000E+00 0.25255097E+04 0.25255097E+04 0.33000000E+00 0.0000E+00 0.0000E+00
        5 -1    0    0  501    0 0.00000000E+00 0.00000000E+00 -.30079194E+02 0.30459775E+02 0.48000000E+01 0.0000E+00 0.0000E+00
        6  2    1    2  501    0 0.59424947E+02 -.87214147E+02 0.32718933E+03 0.38516146E+03 0.17366307E+03 0.0000E+00 0.0000E+00
       24  1    3    3    0    0 0.45004581E+02 0.16861410E+00 0.25391256E+03 0.27011269E+03 0.80398000E+02 0.0000E+00 0.0000E+00
        5  1    3    3  501    0 0.14420366E+02 -.87382761E+02 0.73276777E+02 0.11504877E+03 0.48000000E+01 0.0000E+00 0.0000E+00
        1  1    1    2  502    0 -.59424947E+02 0.87214147E+02 0.21682412E+04 0.21708080E+04 0.33000000E+00 0.0000E+00 0.0000E+00
#aMCatNLO 1  6  5  0  0 0.00000000E+00 0.00000000E+00 9  0  0 0.99999995E+00 0.97029768E+00 0.99999995E+00 0.00000000E+00 0.00000000E+00
  <rwgt>
   <wgt id="1001"> 0.50109E+02 </wgt>
   <wgt id="1002"> 0.48621E+02 </wgt>
   <wgt id="1003"> 0.49778E+02 </wgt>
   <wgt id="1004"> 0.50109E+02 </wgt>
   <wgt id="1005"> 0.48621E+02 </wgt>
   <wgt id="1006"> 0.49778E+02 </wgt>
   <wgt id="1007"> 0.50109E+02 </wgt>
   <wgt id="1008"> 0.48621E+02 </wgt>
   <wgt id="1009"> 0.49778E+02 </wgt>
  </rwgt>
  </event>
  <event>
  5     66 0.50109093E+02 0.15493569E+03 0.75563862E-02 0.12114027E+00
        2 -1    0    0  502    0 0.00000000E+00 0.00000000E+00 0.12583134E+04 0.12583135E+04 0.33000000E+00 0.0000E+00 0.0000E+00
        5 -1    0    0  501    0 0.00000000E+00 0.00000000E+00 -.20732558E+03 0.20738113E+03 0.48000000E+01 0.0000E+00 0.0000E+00
       24  1    1    2    0    0 -.15191162E+02 0.59977811E+02 -.35301940E+02 0.10741590E+03 0.80398000E+02 0.0000E+00 0.0000E+00
        5  1    1    2  501    0 0.80570138E+02 0.13236246E+03 -.79981965E+02 0.17444633E+03 0.48000000E+01 0.0000E+00 0.0000E+00
        1  1    1    2  502    0 -.65378977E+02 -.19234027E+03 0.11662718E+04 0.11838324E+04 0.33000000E+00 0.0000E+00 0.0000E+00
#aMCatNLO 1  6  2  0  0 0.00000000E+00 0.00000000E+00 9  0  0 0.99999996E+00 0.94356955E+00 0.10191700E+01 0.00000000E+00 0.00000000E+00
  <rwgt>
   <wgt id="1001"> 0.50109E+02 </wgt>
   <wgt id="1002"> 0.47281E+02 </wgt>
   <wgt id="1003"> 0.51070E+02 </wgt>
   <wgt id="1004"> 0.50109E+02 </wgt>
   <wgt id="1005"> 0.47281E+02 </wgt>
   <wgt id="1006"> 0.51070E+02 </wgt>
   <wgt id="1007"> 0.50109E+02 </wgt>
   <wgt id="1008"> 0.47281E+02 </wgt>
   <wgt id="1009"> 0.51070E+02 </wgt>
  </rwgt>
  </event>
  <event>
  6     66 0.50109093E+02 0.81929291E+01 0.75563862E-02 0.12114027E+00
        5 -1    0    0  501    0 0.00000000E+00 0.00000000E+00 0.88178134E+01 0.10039613E+02 0.48000000E+01 0.0000E+00 0.0000E+00
        2 -1    0    0  502    0 0.00000000E+00 0.00000000E+00 -.99438270E+03 0.99438276E+03 0.33000000E+00 0.0000E+00 0.0000E+00
        6  2    1    2  501    0 0.79965697E+01 0.17604319E+01 -.80372831E+03 0.82240123E+03 0.17406191E+03 0.0000E+00 0.0000E+00
       24  1    3    3    0    0 -.60634236E+02 0.20895603E+02 -.47427032E+03 0.48529301E+03 0.80398000E+02 0.0000E+00 0.0000E+00
        5  1    3    3  501    0 0.68630806E+02 -.19135171E+02 -.32945800E+03 0.33710822E+03 0.48000000E+01 0.0000E+00 0.0000E+00
        1  1    1    2  502    0 -.79965697E+01 -.17604319E+01 -.18183658E+03 0.18202113E+03 0.33000000E+00 0.0000E+00 0.0000E+00
#aMCatNLO 1  6  2  0  0 0.00000000E+00 0.00000000E+00 9  0  0 0.99999997E+00 0.85334623E+00 0.11132455E+01 0.00000000E+00 0.00000000E+00
  <rwgt>
   <wgt id="1001"> 0.50109E+02 </wgt>
   <wgt id="1002"> 0.42760E+02 </wgt>
   <wgt id="1003"> 0.55784E+02 </wgt>
   <wgt id="1004"> 0.50109E+02 </wgt>
   <wgt id="1005"> 0.42760E+02 </wgt>
   <wgt id="1006"> 0.55784E+02 </wgt>
   <wgt id="1007"> 0.50109E+02 </wgt>
   <wgt id="1008"> 0.42760E+02 </wgt>
   <wgt id="1009"> 0.55784E+02 </wgt>
  </rwgt>
  </event>
  <event>
  6     66 0.50109093E+02 0.64294207E+02 0.75563862E-02 0.12114027E+00
        5 -1    0    0  501    0 0.00000000E+00 0.00000000E+00 0.63867986E+02 0.64048104E+02 0.48000000E+01 0.0000E+00 0.0000E+00
        2 -1    0    0  502    0 -.00000000E+00 -.00000000E+00 -.11111369E+04 0.11111370E+04 0.33000000E+00 0.0000E+00 0.0000E+00
        6  2    1    2  501    0 -.73251838E+02 0.13831335E+02 -.81430224E+02 0.20647373E+03 0.17448033E+03 0.0000E+00 0.0000E+00
       24  1    3    3    0    0 -.56005811E+02 0.75677056E+02 -.40858119E+02 0.13037213E+03 0.80398000E+02 0.0000E+00 0.0000E+00
        5  1    3    3  501    0 -.17246027E+02 -.61845721E+02 -.40572106E+02 0.76101606E+02 0.48000000E+01 0.0000E+00 0.0000E+00
        1  1    1    2  502    0 0.73251838E+02 -.13831335E+02 -.96583870E+03 0.96871133E+03 0.33000000E+00 0.0000E+00 0.0000E+00
#aMCatNLO 1  6  5  0  0 0.00000000E+00 0.00000000E+00 9  0  0 0.10000000E+01 0.90275257E+00 0.10595810E+01 0.00000000E+00 0.00000000E+00
  <rwgt>
   <wgt id="1001"> 0.50109E+02 </wgt>
   <wgt id="1002"> 0.45236E+02 </wgt>
   <wgt id="1003"> 0.53095E+02 </wgt>
   <wgt id="1004"> 0.50109E+02 </wgt>
   <wgt id="1005"> 0.45236E+02 </wgt>
   <wgt id="1006"> 0.53095E+02 </wgt>
   <wgt id="1007"> 0.50109E+02 </wgt>
   <wgt id="1008"> 0.45236E+02 </wgt>
   <wgt id="1009"> 0.53095E+02 </wgt>
  </rwgt>
  </event>
  <event>
  6     66 0.50109093E+02 0.33700008E+02 0.75563862E-02 0.12114027E+00
        5 -1    0    0  501    0 0.00000000E+00 0.00000000E+00 0.38885069E+02 0.39180207E+02 0.48000000E+01 0.0000E+00 0.0000E+00
        2 -1    0    0  502    0 -.00000000E+00 -.00000000E+00 -.57737442E+03 0.57737452E+03 0.33000000E+00 0.0000E+00 0.0000E+00
        6  2    1    2  501    0 -.19527562E+02 0.27465471E+02 -.16397303E+03 0.24052512E+03 0.17271219E+03 0.0000E+00 0.0000E+00
       24  1    3    3    0    0 0.85873517E+01 -.11356306E+02 -.13790026E+02 0.82805263E+02 0.80398000E+02 0.0000E+00 0.0000E+00
        5  1    3    3  501    0 -.28114914E+02 0.38821777E+02 -.15018301E+03 0.15771986E+03 0.48000000E+01 0.0000E+00 0.0000E+00
        1  1    1    2  502    0 0.19527562E+02 -.27465471E+02 -.37451632E+03 0.37602960E+03 0.33000000E+00 0.0000E+00 0.0000E+00
#aMCatNLO 1  6  5  0  0 0.00000000E+00 0.00000000E+00 9  0  0 0.10000000E+01 0.85668639E+00 0.11096452E+01 0.00000000E+00 0.00000000E+00
  <rwgt>
   <wgt id="1001"> 0.50109E+02 </wgt>
   <wgt id="1002"> 0.42928E+02 </wgt>
   <wgt id="1003"> 0.55603E+02 </wgt>
   <wgt id="1004"> 0.50109E+02 </wgt>
   <wgt id="1005"> 0.42928E+02 </wgt>
   <wgt id="1006"> 0.55603E+02 </wgt>
   <wgt id="1007"> 0.50109E+02 </wgt>
   <wgt id="1008"> 0.42928E+02 </wgt>
   <wgt id="1009"> 0.55603E+02 </wgt>
  </rwgt>
  </event>
  <event>
  6     66 0.50109093E+02 0.88876359E+02 0.75563862E-02 0.12114027E+00
        5 -1    0    0  501    0 0.00000000E+00 0.00000000E+00 0.21258979E+02 0.21794132E+02 0.48000000E+01 0.0000E+00 0.0000E+00
        2 -1    0    0  502    0 0.00000000E+00 0.00000000E+00 -.12621366E+04 0.12621366E+04 0.33000000E+00 0.0000E+00 0.0000E+00
        6  2    1    2  501    0 -.86695742E+02 0.19565366E+02 -.48144281E+03 0.51931303E+03 0.17320476E+03 0.0000E+00 0.0000E+00
       24  1    3    3    0    0 0.18111942E+02 -.15388692E+02 -.19460590E+03 0.21189655E+03 0.80398000E+02 0.0000E+00 0.0000E+00
        5  1    3    3  501    0 -.10480768E+03 0.34954058E+02 -.28683692E+03 0.30741648E+03 0.48000000E+01 0.0000E+00 0.0000E+00
        1  1    1    2  502    0 0.86695742E+02 -.19565366E+02 -.75943479E+03 0.76461772E+03 0.33000000E+00 0.0000E+00 0.0000E+00
#aMCatNLO 1  6  2  0  0 0.00000000E+00 0.00000000E+00 9  0  0 0.10000001E+01 0.88585157E+00 0.10771163E+01 0.00000000E+00 0.00000000E+00
  <rwgt>
   <wgt id="1001"> 0.50109E+02 </wgt>
   <wgt id="1002"> 0.44390E+02 </wgt>
   <wgt id="1003"> 0.53974E+02 </wgt>
   <wgt id="1004"> 0.50109E+02 </wgt>
   <wgt id="1005"> 0.44390E+02 </wgt>
   <wgt id="1006"> 0.53974E+02 </wgt>
   <wgt id="1007"> 0.50109E+02 </wgt>
   <wgt id="1008"> 0.44390E+02 </wgt>
   <wgt id="1009"> 0.53974E+02 </wgt>
  </rwgt>
  </event>
  <event>
  5     66 0.50109093E+02 0.12525866E+02 0.75563862E-02 0.12114027E+00
        4 -1    0    0  502    0 0.00000000E+00 0.00000000E+00 0.11165039E+03 0.11166046E+03 0.15000000E+01 0.0000E+00 0.0000E+00
        5 -1    0    0  501    0 -.00000000E+00 -.00000000E+00 -.37587818E+03 0.37590883E+03 0.48000000E+01 0.0000E+00 0.0000E+00
       24  1    1    2    0    0 0.19170520E+01 -.73805493E+02 -.20480743E+03 0.23207940E+03 0.80398000E+02 0.0000E+00 0.0000E+00
        5  1    1    2  501    0 0.49276576E+00 0.61513703E+02 -.15096661E+03 0.16308935E+03 0.48000000E+01 0.0000E+00 0.0000E+00
        3  1    1    2  502    0 -.24098177E+01 0.12291790E+02 0.91546247E+02 0.92400544E+02 0.50000000E+00 0.0000E+00 0.0000E+00
#aMCatNLO 1  6  5  0  0 0.00000000E+00 0.00000000E+00 9  0  0 0.10000000E+01 0.82768139E+00 0.11345974E+01 0.00000000E+00 0.00000000E+00
  <rwgt>
   <wgt id="1001"> 0.50109E+02 </wgt>
   <wgt id="1002"> 0.41474E+02 </wgt>
   <wgt id="1003"> 0.56854E+02 </wgt>
   <wgt id="1004"> 0.50109E+02 </wgt>
   <wgt id="1005"> 0.41474E+02 </wgt>
   <wgt id="1006"> 0.56854E+02 </wgt>
   <wgt id="1007"> 0.50109E+02 </wgt>
   <wgt id="1008"> 0.41474E+02 </wgt>
   <wgt id="1009"> 0.56854E+02 </wgt>
  </rwgt>
  </event>
  <event>
  6     66 0.50109093E+02 0.21764107E+02 0.75563862E-02 0.12114027E+00
       -1 -1    0    0    0  501 0.00000000E+00 0.00000000E+00 0.52402174E+03 0.52402185E+03 0.33000000E+00 0.0000E+00 0.0000E+00
        5 -1    0    0  502    0 0.00000000E+00 0.00000000E+00 -.28915728E+02 0.29311420E+02 0.48000000E+01 0.0000E+00 0.0000E+00
        6  2    1    2  502    0 0.39022999E+01 0.21411006E+02 0.23912907E+03 0.29643257E+03 0.17382722E+03 0.0000E+00 0.0000E+00
       24  1    3    3    0    0 -.53784979E+02 0.49588604E+02 0.12729284E+03 0.16738924E+03 0.80398000E+02 0.0000E+00 0.0000E+00
        5  1    3    3  502    0 0.57687279E+02 -.28177599E+02 0.11183623E+03 0.12904333E+03 0.48000000E+01 0.0000E+00 0.0000E+00
       -2  1    1    2    0  501 -.39022999E+01 -.21411006E+02 0.25597695E+03 0.25690069E+03 0.33000000E+00 0.0000E+00 0.0000E+00
#aMCatNLO 1  6  5  0  0 0.00000000E+00 0.00000000E+00 9  0  0 0.10000000E+01 0.87194415E+00 0.10916887E+01 0.00000000E+00 0.00000000E+00
  <rwgt>
   <wgt id="1001"> 0.50109E+02 </wgt>
   <wgt id="1002"> 0.43692E+02 </wgt>
   <wgt id="1003"> 0.54704E+02 </wgt>
   <wgt id="1004"> 0.50109E+02 </wgt>
   <wgt id="1005"> 0.43692E+02 </wgt>
   <wgt id="1006"> 0.54704E+02 </wgt>
   <wgt id="1007"> 0.50109E+02 </wgt>
   <wgt id="1008"> 0.43692E+02 </wgt>
   <wgt id="1009"> 0.54704E+02 </wgt>
  </rwgt>
  </event>
  <event>
  5     66 0.50109093E+02 0.87584527E+01 0.75563862E-02 0.12114027E+00
       -1 -1    0    0    0  501 0.00000000E+00 0.00000000E+00 0.40407181E+03 0.40407194E+03 0.33000000E+00 0.0000E+00 0.0000E+00
        5 -1    0    0  502    0 0.00000000E+00 0.00000000E+00 -.24602011E+02 0.25065892E+02 0.48000000E+01 0.0000E+00 0.0000E+00
       24  1    1    2    0    0 -.15557538E+02 0.23372455E+02 0.58191134E+02 0.10314240E+03 0.80398000E+02 0.0000E+00 0.0000E+00
        5  1    1    2  502    0 0.18223675E+02 -.31671148E+02 0.14878543E+03 0.15328179E+03 0.48000000E+01 0.0000E+00 0.0000E+00
       -2  1    1    2    0  501 -.26661367E+01 0.82986930E+01 0.17249323E+03 0.17271364E+03 0.33000000E+00 0.0000E+00 0.0000E+00
#aMCatNLO 1  6  2  0  0 0.00000000E+00 0.00000000E+00 9  0  0 0.10000001E+01 0.85353954E+00 0.11122399E+01 0.00000000E+00 0.00000000E+00
  <rwgt>
   <wgt id="1001"> 0.50109E+02 </wgt>
   <wgt id="1002"> 0.42770E+02 </wgt>
   <wgt id="1003"> 0.55733E+02 </wgt>
   <wgt id="1004"> 0.50109E+02 </wgt>
   <wgt id="1005"> 0.42770E+02 </wgt>
   <wgt id="1006"> 0.55733E+02 </wgt>
   <wgt id="1007"> 0.50109E+02 </wgt>
   <wgt id="1008"> 0.42770E+02 </wgt>
   <wgt id="1009"> 0.55733E+02 </wgt>
  </rwgt>
  </event>
</LesHouchesEvents>

